VARIABLES="U","Y"
ZONE F=POINT
J=101
0.00000	0.00000
-0.03898	0.01000
-0.07431	0.02000
-0.10649	0.03000
-0.13609	0.04000
-0.16377	0.05000
-0.19014	0.06000
-0.21565	0.07000
-0.24049	0.08000
-0.26458	0.09000
-0.28759	0.10000
-0.30906	0.11000
-0.32844	0.12000
-0.34520	0.13000
-0.35886	0.14000
-0.36910	0.15000
-0.37574	0.16000
-0.37877	0.17000
-0.37836	0.18000
-0.37483	0.19000
-0.36860	0.20000
-0.36019	0.21000
-0.35010	0.22000
-0.33886	0.23000
-0.32690	0.24000
-0.31461	0.25000
-0.30229	0.26000
-0.29014	0.27000
-0.27830	0.28000
-0.26684	0.29000
-0.25576	0.30000
-0.24507	0.31000
-0.23471	0.32000
-0.22463	0.33000
-0.21478	0.34000
-0.20510	0.35000
-0.19553	0.36000
-0.18604	0.37000
-0.17659	0.38000
-0.16716	0.39000
-0.15773	0.40000
-0.14828	0.41000
-0.13881	0.42000
-0.12932	0.43000
-0.11979	0.44000
-0.11023	0.45000
-0.10065	0.46000
-0.09103	0.47000
-0.08138	0.48000
-0.07170	0.49000
-0.06200	0.50000
-0.05226	0.51000
-0.04248	0.52000
-0.03267	0.53000
-0.02283	0.54000
-0.01294	0.55000
-0.00300	0.56000
0.00699	0.57000
0.01703	0.58000
0.02714	0.59000
0.03731	0.60000
0.04755	0.61000
0.05787	0.62000
0.06828	0.63000
0.07879	0.64000
0.08940	0.65000
0.10012	0.66000
0.11097	0.67000
0.12195	0.68000
0.13308	0.69000
0.14437	0.70000
0.15582	0.71000
0.16746	0.72000
0.17927	0.73000
0.19127	0.74000
0.20346	0.75000
0.21582	0.76000
0.22834	0.77000
0.24099	0.78000
0.25373	0.79000
0.26651	0.80000
0.27927	0.81000
0.29193	0.82000
0.30438	0.83000
0.31652	0.84000
0.32823	0.85000
0.33937	0.86000
0.34980	0.87000
0.35942	0.88000
0.36816	0.89000
0.37611	0.90000
0.38371	0.91000
0.39208	0.92000
0.40357	0.93000
0.42227	0.94000
0.45442	0.95000
0.50790	0.96000
0.59033	0.97000
0.70531	0.98000
0.84762	0.99000
1.00000	1.00000
