VARIABLES="X","V"
ZONE F=POINT
I=101
0.00000	0.00000
0.01000	0.06848
0.02000	0.12622
0.03000	0.17371
0.04000	0.21197
0.05000	0.24251
0.06000	0.26704
0.07000	0.28714
0.08000	0.30407
0.09000	0.31864
0.10000	0.33129
0.11000	0.34217
0.12000	0.35124
0.13000	0.35839
0.14000	0.36354
0.15000	0.36659
0.16000	0.36754
0.17000	0.36641
0.18000	0.36332
0.19000	0.35840
0.20000	0.35184
0.21000	0.34386
0.22000	0.33469
0.23000	0.32455
0.24000	0.31367
0.25000	0.30227
0.26000	0.29052
0.27000	0.27858
0.28000	0.26658
0.29000	0.25460
0.30000	0.24273
0.31000	0.23099
0.32000	0.21941
0.33000	0.20799
0.34000	0.19674
0.35000	0.18563
0.36000	0.17464
0.37000	0.16377
0.38000	0.15298
0.39000	0.14227
0.40000	0.13161
0.41000	0.12098
0.42000	0.11039
0.43000	0.09981
0.44000	0.08925
0.45000	0.07869
0.46000	0.06814
0.47000	0.05758
0.48000	0.04702
0.49000	0.03645
0.50000	0.02588
0.51000	0.01529
0.52000	0.00468
0.53000	-0.00594
0.54000	-0.01659
0.55000	-0.02726
0.56000	-0.03796
0.57000	-0.04869
0.58000	-0.05946
0.59000	-0.07027
0.60000	-0.08113
0.61000	-0.09203
0.62000	-0.10298
0.63000	-0.11398
0.64000	-0.12503
0.65000	-0.13613
0.66000	-0.14727
0.67000	-0.15846
0.68000	-0.16968
0.69000	-0.18093
0.70000	-0.19219
0.71000	-0.20346
0.72000	-0.21473
0.73000	-0.22599
0.74000	-0.23726
0.75000	-0.24855
0.76000	-0.25993
0.77000	-0.27147
0.78000	-0.28332
0.79000	-0.29566
0.80000	-0.30878
0.81000	-0.32299
0.82000	-0.33869
0.83000	-0.35624
0.84000	-0.37595
0.85000	-0.39792
0.86000	-0.42187
0.87000	-0.44694
0.88000	-0.47153
0.89000	-0.49316
0.90000	-0.50846
0.91000	-0.51345
0.92000	-0.50410
0.93000	-0.47722
0.94000	-0.43152
0.95000	-0.36854
0.96000	-0.29281
0.97000	-0.21117
0.98000	-0.13115
0.99000	-0.05931
1.00000	0.00000
