VARIABLES="X","Y","U"
ZONE  F=POINT
I=101, J=101
0.00000	0.00000	0.00000
0.01000	0.00000	0.00000
0.02000	0.00000	0.00000
0.03000	0.00000	0.00000
0.04000	0.00000	0.00000
0.05000	0.00000	0.00000
0.06000	0.00000	0.00000
0.07000	0.00000	0.00000
0.08000	0.00000	0.00000
0.09000	0.00000	0.00000
0.10000	0.00000	0.00000
0.11000	0.00000	0.00000
0.12000	0.00000	0.00000
0.13000	0.00000	0.00000
0.14000	0.00000	0.00000
0.15000	0.00000	0.00000
0.16000	0.00000	0.00000
0.17000	0.00000	0.00000
0.18000	0.00000	0.00000
0.19000	0.00000	0.00000
0.20000	0.00000	0.00000
0.21000	0.00000	0.00000
0.22000	0.00000	0.00000
0.23000	0.00000	0.00000
0.24000	0.00000	0.00000
0.25000	0.00000	0.00000
0.26000	0.00000	0.00000
0.27000	0.00000	0.00000
0.28000	0.00000	0.00000
0.29000	0.00000	0.00000
0.30000	0.00000	0.00000
0.31000	0.00000	0.00000
0.32000	0.00000	0.00000
0.33000	0.00000	0.00000
0.34000	0.00000	0.00000
0.35000	0.00000	0.00000
0.36000	0.00000	0.00000
0.37000	0.00000	0.00000
0.38000	0.00000	0.00000
0.39000	0.00000	0.00000
0.40000	0.00000	0.00000
0.41000	0.00000	0.00000
0.42000	0.00000	0.00000
0.43000	0.00000	0.00000
0.44000	0.00000	0.00000
0.45000	0.00000	0.00000
0.46000	0.00000	0.00000
0.47000	0.00000	0.00000
0.48000	0.00000	0.00000
0.49000	0.00000	0.00000
0.50000	0.00000	0.00000
0.51000	0.00000	0.00000
0.52000	0.00000	0.00000
0.53000	0.00000	0.00000
0.54000	0.00000	0.00000
0.55000	0.00000	0.00000
0.56000	0.00000	0.00000
0.57000	0.00000	0.00000
0.58000	0.00000	0.00000
0.59000	0.00000	0.00000
0.60000	0.00000	0.00000
0.61000	0.00000	0.00000
0.62000	0.00000	0.00000
0.63000	0.00000	0.00000
0.64000	0.00000	0.00000
0.65000	0.00000	0.00000
0.66000	0.00000	0.00000
0.67000	0.00000	0.00000
0.68000	0.00000	0.00000
0.69000	0.00000	0.00000
0.70000	0.00000	0.00000
0.71000	0.00000	0.00000
0.72000	0.00000	0.00000
0.73000	0.00000	0.00000
0.74000	0.00000	0.00000
0.75000	0.00000	0.00000
0.76000	0.00000	0.00000
0.77000	0.00000	0.00000
0.78000	0.00000	0.00000
0.79000	0.00000	0.00000
0.80000	0.00000	0.00000
0.81000	0.00000	0.00000
0.82000	0.00000	0.00000
0.83000	0.00000	0.00000
0.84000	0.00000	0.00000
0.85000	0.00000	0.00000
0.86000	0.00000	0.00000
0.87000	0.00000	0.00000
0.88000	0.00000	0.00000
0.89000	0.00000	0.00000
0.90000	0.00000	0.00000
0.91000	0.00000	0.00000
0.92000	0.00000	0.00000
0.93000	0.00000	0.00000
0.94000	0.00000	0.00000
0.95000	0.00000	0.00000
0.96000	0.00000	0.00000
0.97000	0.00000	0.00000
0.98000	0.00000	0.00000
0.99000	0.00000	0.00000
1.00000	0.00000	0.00000
0.00000	0.01000	0.00000
0.01000	0.01000	0.00005
0.02000	0.01000	0.00022
0.03000	0.01000	0.00049
0.04000	0.01000	0.00082
0.05000	0.01000	0.00117
0.06000	0.01000	0.00151
0.07000	0.01000	0.00182
0.08000	0.01000	0.00209
0.09000	0.01000	0.00229
0.10000	0.01000	0.00244
0.11000	0.01000	0.00252
0.12000	0.01000	0.00253
0.13000	0.01000	0.00248
0.14000	0.01000	0.00236
0.15000	0.01000	0.00219
0.16000	0.01000	0.00195
0.17000	0.01000	0.00166
0.18000	0.01000	0.00131
0.19000	0.01000	0.00089
0.20000	0.01000	0.00041
0.21000	0.01000	-0.00013
0.22000	0.01000	-0.00076
0.23000	0.01000	-0.00145
0.24000	0.01000	-0.00224
0.25000	0.01000	-0.00310
0.26000	0.01000	-0.00406
0.27000	0.01000	-0.00512
0.28000	0.01000	-0.00626
0.29000	0.01000	-0.00751
0.30000	0.01000	-0.00885
0.31000	0.01000	-0.01029
0.32000	0.01000	-0.01181
0.33000	0.01000	-0.01342
0.34000	0.01000	-0.01510
0.35000	0.01000	-0.01685
0.36000	0.01000	-0.01866
0.37000	0.01000	-0.02050
0.38000	0.01000	-0.02237
0.39000	0.01000	-0.02424
0.40000	0.01000	-0.02610
0.41000	0.01000	-0.02793
0.42000	0.01000	-0.02969
0.43000	0.01000	-0.03138
0.44000	0.01000	-0.03296
0.45000	0.01000	-0.03441
0.46000	0.01000	-0.03570
0.47000	0.01000	-0.03682
0.48000	0.01000	-0.03773
0.49000	0.01000	-0.03843
0.50000	0.01000	-0.03888
0.51000	0.01000	-0.03908
0.52000	0.01000	-0.03901
0.53000	0.01000	-0.03865
0.54000	0.01000	-0.03801
0.55000	0.01000	-0.03708
0.56000	0.01000	-0.03587
0.57000	0.01000	-0.03437
0.58000	0.01000	-0.03261
0.59000	0.01000	-0.03060
0.60000	0.01000	-0.02836
0.61000	0.01000	-0.02592
0.62000	0.01000	-0.02330
0.63000	0.01000	-0.02055
0.64000	0.01000	-0.01770
0.65000	0.01000	-0.01480
0.66000	0.01000	-0.01187
0.67000	0.01000	-0.00898
0.68000	0.01000	-0.00615
0.69000	0.01000	-0.00343
0.70000	0.01000	-0.00086
0.71000	0.01000	0.00153
0.72000	0.01000	0.00371
0.73000	0.01000	0.00565
0.74000	0.01000	0.00734
0.75000	0.01000	0.00877
0.76000	0.01000	0.00993
0.77000	0.01000	0.01082
0.78000	0.01000	0.01145
0.79000	0.01000	0.01183
0.80000	0.01000	0.01198
0.81000	0.01000	0.01193
0.82000	0.01000	0.01168
0.83000	0.01000	0.01127
0.84000	0.01000	0.01072
0.85000	0.01000	0.01007
0.86000	0.01000	0.00932
0.87000	0.01000	0.00851
0.88000	0.01000	0.00765
0.89000	0.01000	0.00677
0.90000	0.01000	0.00587
0.91000	0.01000	0.00498
0.92000	0.01000	0.00410
0.93000	0.01000	0.00326
0.94000	0.01000	0.00246
0.95000	0.01000	0.00173
0.96000	0.01000	0.00109
0.97000	0.01000	0.00057
0.98000	0.01000	0.00021
0.99000	0.01000	0.00002
1.00000	0.01000	0.00000
0.00000	0.02000	0.00000
0.01000	0.02000	0.00012
0.02000	0.02000	0.00044
0.03000	0.02000	0.00090
0.04000	0.02000	0.00144
0.05000	0.02000	0.00200
0.06000	0.02000	0.00254
0.07000	0.02000	0.00303
0.08000	0.02000	0.00343
0.09000	0.02000	0.00372
0.10000	0.02000	0.00390
0.11000	0.02000	0.00396
0.12000	0.02000	0.00390
0.13000	0.02000	0.00371
0.14000	0.02000	0.00339
0.15000	0.02000	0.00296
0.16000	0.02000	0.00241
0.17000	0.02000	0.00173
0.18000	0.02000	0.00094
0.19000	0.02000	0.00001
0.20000	0.02000	-0.00105
0.21000	0.02000	-0.00224
0.22000	0.02000	-0.00359
0.23000	0.02000	-0.00509
0.24000	0.02000	-0.00675
0.25000	0.02000	-0.00858
0.26000	0.02000	-0.01058
0.27000	0.02000	-0.01276
0.28000	0.02000	-0.01511
0.29000	0.02000	-0.01764
0.30000	0.02000	-0.02034
0.31000	0.02000	-0.02320
0.32000	0.02000	-0.02621
0.33000	0.02000	-0.02935
0.34000	0.02000	-0.03261
0.35000	0.02000	-0.03596
0.36000	0.02000	-0.03938
0.37000	0.02000	-0.04284
0.38000	0.02000	-0.04630
0.39000	0.02000	-0.04974
0.40000	0.02000	-0.05310
0.41000	0.02000	-0.05636
0.42000	0.02000	-0.05947
0.43000	0.02000	-0.06239
0.44000	0.02000	-0.06508
0.45000	0.02000	-0.06750
0.46000	0.02000	-0.06961
0.47000	0.02000	-0.07137
0.48000	0.02000	-0.07276
0.49000	0.02000	-0.07373
0.50000	0.02000	-0.07427
0.51000	0.02000	-0.07435
0.52000	0.02000	-0.07396
0.53000	0.02000	-0.07308
0.54000	0.02000	-0.07171
0.55000	0.02000	-0.06986
0.56000	0.02000	-0.06753
0.57000	0.02000	-0.06473
0.58000	0.02000	-0.06150
0.59000	0.02000	-0.05786
0.60000	0.02000	-0.05385
0.61000	0.02000	-0.04952
0.62000	0.02000	-0.04491
0.63000	0.02000	-0.04007
0.64000	0.02000	-0.03508
0.65000	0.02000	-0.02998
0.66000	0.02000	-0.02486
0.67000	0.02000	-0.01977
0.68000	0.02000	-0.01478
0.69000	0.02000	-0.00996
0.70000	0.02000	-0.00536
0.71000	0.02000	-0.00105
0.72000	0.02000	0.00293
0.73000	0.02000	0.00653
0.74000	0.02000	0.00972
0.75000	0.02000	0.01248
0.76000	0.02000	0.01479
0.77000	0.02000	0.01665
0.78000	0.02000	0.01807
0.79000	0.02000	0.01904
0.80000	0.02000	0.01961
0.81000	0.02000	0.01980
0.82000	0.02000	0.01964
0.83000	0.02000	0.01917
0.84000	0.02000	0.01843
0.85000	0.02000	0.01747
0.86000	0.02000	0.01632
0.87000	0.02000	0.01502
0.88000	0.02000	0.01362
0.89000	0.02000	0.01214
0.90000	0.02000	0.01062
0.91000	0.02000	0.00908
0.92000	0.02000	0.00756
0.93000	0.02000	0.00608
0.94000	0.02000	0.00467
0.95000	0.02000	0.00337
0.96000	0.02000	0.00222
0.97000	0.02000	0.00127
0.98000	0.02000	0.00056
0.99000	0.02000	0.00013
1.00000	0.02000	0.00000
0.00000	0.03000	0.00000
0.01000	0.03000	0.00018
0.02000	0.03000	0.00060
0.03000	0.03000	0.00118
0.04000	0.03000	0.00184
0.05000	0.03000	0.00251
0.06000	0.03000	0.00314
0.07000	0.03000	0.00369
0.08000	0.03000	0.00411
0.09000	0.03000	0.00439
0.10000	0.03000	0.00450
0.11000	0.03000	0.00445
0.12000	0.03000	0.00421
0.13000	0.03000	0.00380
0.14000	0.03000	0.00321
0.15000	0.03000	0.00243
0.16000	0.03000	0.00147
0.17000	0.03000	0.00033
0.18000	0.03000	-0.00100
0.19000	0.03000	-0.00252
0.20000	0.03000	-0.00425
0.21000	0.03000	-0.00619
0.22000	0.03000	-0.00835
0.23000	0.03000	-0.01074
0.24000	0.03000	-0.01337
0.25000	0.03000	-0.01624
0.26000	0.03000	-0.01935
0.27000	0.03000	-0.02271
0.28000	0.03000	-0.02631
0.29000	0.03000	-0.03014
0.30000	0.03000	-0.03419
0.31000	0.03000	-0.03844
0.32000	0.03000	-0.04288
0.33000	0.03000	-0.04746
0.34000	0.03000	-0.05217
0.35000	0.03000	-0.05696
0.36000	0.03000	-0.06179
0.37000	0.03000	-0.06662
0.38000	0.03000	-0.07140
0.39000	0.03000	-0.07608
0.40000	0.03000	-0.08061
0.41000	0.03000	-0.08494
0.42000	0.03000	-0.08900
0.43000	0.03000	-0.09276
0.44000	0.03000	-0.09616
0.45000	0.03000	-0.09915
0.46000	0.03000	-0.10169
0.47000	0.03000	-0.10374
0.48000	0.03000	-0.10526
0.49000	0.03000	-0.10622
0.50000	0.03000	-0.10660
0.51000	0.03000	-0.10637
0.52000	0.03000	-0.10553
0.53000	0.03000	-0.10407
0.54000	0.03000	-0.10199
0.55000	0.03000	-0.09930
0.56000	0.03000	-0.09602
0.57000	0.03000	-0.09216
0.58000	0.03000	-0.08776
0.59000	0.03000	-0.08287
0.60000	0.03000	-0.07751
0.61000	0.03000	-0.07176
0.62000	0.03000	-0.06567
0.63000	0.03000	-0.05929
0.64000	0.03000	-0.05271
0.65000	0.03000	-0.04600
0.66000	0.03000	-0.03924
0.67000	0.03000	-0.03250
0.68000	0.03000	-0.02586
0.69000	0.03000	-0.01941
0.70000	0.03000	-0.01321
0.71000	0.03000	-0.00734
0.72000	0.03000	-0.00186
0.73000	0.03000	0.00317
0.74000	0.03000	0.00771
0.75000	0.03000	0.01172
0.76000	0.03000	0.01517
0.77000	0.03000	0.01805
0.78000	0.03000	0.02036
0.79000	0.03000	0.02210
0.80000	0.03000	0.02330
0.81000	0.03000	0.02397
0.82000	0.03000	0.02417
0.83000	0.03000	0.02393
0.84000	0.03000	0.02331
0.85000	0.03000	0.02234
0.86000	0.03000	0.02109
0.87000	0.03000	0.01960
0.88000	0.03000	0.01792
0.89000	0.03000	0.01611
0.90000	0.03000	0.01421
0.91000	0.03000	0.01225
0.92000	0.03000	0.01029
0.93000	0.03000	0.00836
0.94000	0.03000	0.00651
0.95000	0.03000	0.00479
0.96000	0.03000	0.00324
0.97000	0.03000	0.00193
0.98000	0.03000	0.00091
0.99000	0.03000	0.00025
1.00000	0.03000	0.00000
0.00000	0.04000	0.00000
0.01000	0.04000	0.00021
0.02000	0.04000	0.00069
0.03000	0.04000	0.00133
0.04000	0.04000	0.00203
0.05000	0.04000	0.00273
0.06000	0.04000	0.00335
0.07000	0.04000	0.00386
0.08000	0.04000	0.00421
0.09000	0.04000	0.00437
0.10000	0.04000	0.00433
0.11000	0.04000	0.00407
0.12000	0.04000	0.00358
0.13000	0.04000	0.00286
0.14000	0.04000	0.00190
0.15000	0.04000	0.00070
0.16000	0.04000	-0.00074
0.17000	0.04000	-0.00244
0.18000	0.04000	-0.00438
0.19000	0.04000	-0.00659
0.20000	0.04000	-0.00908
0.21000	0.04000	-0.01184
0.22000	0.04000	-0.01490
0.23000	0.04000	-0.01826
0.24000	0.04000	-0.02192
0.25000	0.04000	-0.02588
0.26000	0.04000	-0.03015
0.27000	0.04000	-0.03472
0.28000	0.04000	-0.03958
0.29000	0.04000	-0.04470
0.30000	0.04000	-0.05007
0.31000	0.04000	-0.05565
0.32000	0.04000	-0.06142
0.33000	0.04000	-0.06732
0.34000	0.04000	-0.07332
0.35000	0.04000	-0.07935
0.36000	0.04000	-0.08538
0.37000	0.04000	-0.09133
0.38000	0.04000	-0.09715
0.39000	0.04000	-0.10278
0.40000	0.04000	-0.10815
0.41000	0.04000	-0.11322
0.42000	0.04000	-0.11791
0.43000	0.04000	-0.12218
0.44000	0.04000	-0.12597
0.45000	0.04000	-0.12923
0.46000	0.04000	-0.13193
0.47000	0.04000	-0.13402
0.48000	0.04000	-0.13547
0.49000	0.04000	-0.13627
0.50000	0.04000	-0.13638
0.51000	0.04000	-0.13579
0.52000	0.04000	-0.13451
0.53000	0.04000	-0.13252
0.54000	0.04000	-0.12984
0.55000	0.04000	-0.12647
0.56000	0.04000	-0.12244
0.57000	0.04000	-0.11778
0.58000	0.04000	-0.11253
0.59000	0.04000	-0.10671
0.60000	0.04000	-0.10039
0.61000	0.04000	-0.09362
0.62000	0.04000	-0.08645
0.63000	0.04000	-0.07897
0.64000	0.04000	-0.07123
0.65000	0.04000	-0.06333
0.66000	0.04000	-0.05534
0.67000	0.04000	-0.04734
0.68000	0.04000	-0.03942
0.69000	0.04000	-0.03167
0.70000	0.04000	-0.02417
0.71000	0.04000	-0.01700
0.72000	0.04000	-0.01023
0.73000	0.04000	-0.00393
0.74000	0.04000	0.00184
0.75000	0.04000	0.00703
0.76000	0.04000	0.01161
0.77000	0.04000	0.01555
0.78000	0.04000	0.01884
0.79000	0.04000	0.02147
0.80000	0.04000	0.02345
0.81000	0.04000	0.02482
0.82000	0.04000	0.02559
0.83000	0.04000	0.02582
0.84000	0.04000	0.02555
0.85000	0.04000	0.02484
0.86000	0.04000	0.02374
0.87000	0.04000	0.02231
0.88000	0.04000	0.02061
0.89000	0.04000	0.01870
0.90000	0.04000	0.01663
0.91000	0.04000	0.01447
0.92000	0.04000	0.01226
0.93000	0.04000	0.01005
0.94000	0.04000	0.00791
0.95000	0.04000	0.00589
0.96000	0.04000	0.00405
0.97000	0.04000	0.00246
0.98000	0.04000	0.00120
0.99000	0.04000	0.00034
1.00000	0.04000	0.00000
0.00000	0.05000	0.00000
0.01000	0.05000	0.00022
0.02000	0.05000	0.00072
0.03000	0.05000	0.00135
0.04000	0.05000	0.00203
0.05000	0.05000	0.00268
0.06000	0.05000	0.00322
0.07000	0.05000	0.00360
0.08000	0.05000	0.00379
0.09000	0.05000	0.00375
0.10000	0.05000	0.00347
0.11000	0.05000	0.00291
0.12000	0.05000	0.00208
0.13000	0.05000	0.00097
0.14000	0.05000	-0.00043
0.15000	0.05000	-0.00214
0.16000	0.05000	-0.00414
0.17000	0.05000	-0.00646
0.18000	0.05000	-0.00911
0.19000	0.05000	-0.01208
0.20000	0.05000	-0.01539
0.21000	0.05000	-0.01905
0.22000	0.05000	-0.02307
0.23000	0.05000	-0.02745
0.24000	0.05000	-0.03219
0.25000	0.05000	-0.03729
0.26000	0.05000	-0.04274
0.27000	0.05000	-0.04852
0.28000	0.05000	-0.05461
0.29000	0.05000	-0.06099
0.30000	0.05000	-0.06760
0.31000	0.05000	-0.07442
0.32000	0.05000	-0.08138
0.33000	0.05000	-0.08845
0.34000	0.05000	-0.09554
0.35000	0.05000	-0.10262
0.36000	0.05000	-0.10960
0.37000	0.05000	-0.11642
0.38000	0.05000	-0.12302
0.39000	0.05000	-0.12932
0.40000	0.05000	-0.13527
0.41000	0.05000	-0.14080
0.42000	0.05000	-0.14587
0.43000	0.05000	-0.15040
0.44000	0.05000	-0.15437
0.45000	0.05000	-0.15772
0.46000	0.05000	-0.16042
0.47000	0.05000	-0.16245
0.48000	0.05000	-0.16376
0.49000	0.05000	-0.16436
0.50000	0.05000	-0.16421
0.51000	0.05000	-0.16332
0.52000	0.05000	-0.16169
0.53000	0.05000	-0.15930
0.54000	0.05000	-0.15619
0.55000	0.05000	-0.15235
0.56000	0.05000	-0.14782
0.57000	0.05000	-0.14262
0.58000	0.05000	-0.13678
0.59000	0.05000	-0.13035
0.60000	0.05000	-0.12336
0.61000	0.05000	-0.11589
0.62000	0.05000	-0.10797
0.63000	0.05000	-0.09969
0.64000	0.05000	-0.09111
0.65000	0.05000	-0.08231
0.66000	0.05000	-0.07338
0.67000	0.05000	-0.06439
0.68000	0.05000	-0.05544
0.69000	0.05000	-0.04662
0.70000	0.05000	-0.03801
0.71000	0.05000	-0.02970
0.72000	0.05000	-0.02178
0.73000	0.05000	-0.01432
0.74000	0.05000	-0.00738
0.75000	0.05000	-0.00104
0.76000	0.05000	0.00467
0.77000	0.05000	0.00969
0.78000	0.05000	0.01402
0.79000	0.05000	0.01763
0.80000	0.05000	0.02053
0.81000	0.05000	0.02273
0.82000	0.05000	0.02425
0.83000	0.05000	0.02513
0.84000	0.05000	0.02542
0.85000	0.05000	0.02517
0.86000	0.05000	0.02444
0.87000	0.05000	0.02328
0.88000	0.05000	0.02177
0.89000	0.05000	0.01996
0.90000	0.05000	0.01793
0.91000	0.05000	0.01574
0.92000	0.05000	0.01345
0.93000	0.05000	0.01113
0.94000	0.05000	0.00884
0.95000	0.05000	0.00664
0.96000	0.05000	0.00462
0.97000	0.05000	0.00284
0.98000	0.05000	0.00140
0.99000	0.05000	0.00040
1.00000	0.05000	0.00000
0.00000	0.06000	0.00000
0.01000	0.06000	0.00022
0.02000	0.06000	0.00068
0.03000	0.06000	0.00127
0.04000	0.06000	0.00186
0.05000	0.06000	0.00238
0.06000	0.06000	0.00276
0.07000	0.06000	0.00295
0.08000	0.06000	0.00290
0.09000	0.06000	0.00258
0.10000	0.06000	0.00197
0.11000	0.06000	0.00105
0.12000	0.06000	-0.00020
0.13000	0.06000	-0.00178
0.14000	0.06000	-0.00371
0.15000	0.06000	-0.00599
0.16000	0.06000	-0.00863
0.17000	0.06000	-0.01165
0.18000	0.06000	-0.01506
0.19000	0.06000	-0.01885
0.20000	0.06000	-0.02306
0.21000	0.06000	-0.02767
0.22000	0.06000	-0.03270
0.23000	0.06000	-0.03814
0.24000	0.06000	-0.04399
0.25000	0.06000	-0.05023
0.26000	0.06000	-0.05684
0.27000	0.06000	-0.06380
0.28000	0.06000	-0.07107
0.29000	0.06000	-0.07861
0.30000	0.06000	-0.08637
0.31000	0.06000	-0.09428
0.32000	0.06000	-0.10229
0.33000	0.06000	-0.11034
0.34000	0.06000	-0.11834
0.35000	0.06000	-0.12623
0.36000	0.06000	-0.13394
0.37000	0.06000	-0.14140
0.38000	0.06000	-0.14854
0.39000	0.06000	-0.15530
0.40000	0.06000	-0.16161
0.41000	0.06000	-0.16741
0.42000	0.06000	-0.17267
0.43000	0.06000	-0.17734
0.44000	0.06000	-0.18136
0.45000	0.06000	-0.18472
0.46000	0.06000	-0.18739
0.47000	0.06000	-0.18933
0.48000	0.06000	-0.19053
0.49000	0.06000	-0.19099
0.50000	0.06000	-0.19068
0.51000	0.06000	-0.18960
0.52000	0.06000	-0.18776
0.53000	0.06000	-0.18516
0.54000	0.06000	-0.18181
0.55000	0.06000	-0.17772
0.56000	0.06000	-0.17290
0.57000	0.06000	-0.16739
0.58000	0.06000	-0.16122
0.59000	0.06000	-0.15441
0.60000	0.06000	-0.14701
0.61000	0.06000	-0.13907
0.62000	0.06000	-0.13064
0.63000	0.06000	-0.12179
0.64000	0.06000	-0.11258
0.65000	0.06000	-0.10310
0.66000	0.06000	-0.09341
0.67000	0.06000	-0.08361
0.68000	0.06000	-0.07379
0.69000	0.06000	-0.06403
0.70000	0.06000	-0.05443
0.71000	0.06000	-0.04509
0.72000	0.06000	-0.03609
0.73000	0.06000	-0.02752
0.74000	0.06000	-0.01946
0.75000	0.06000	-0.01199
0.76000	0.06000	-0.00515
0.77000	0.06000	0.00100
0.78000	0.06000	0.00642
0.79000	0.06000	0.01109
0.80000	0.06000	0.01499
0.81000	0.06000	0.01813
0.82000	0.06000	0.02053
0.83000	0.06000	0.02221
0.84000	0.06000	0.02321
0.85000	0.06000	0.02359
0.86000	0.06000	0.02339
0.87000	0.06000	0.02268
0.88000	0.06000	0.02153
0.89000	0.06000	0.02001
0.90000	0.06000	0.01818
0.91000	0.06000	0.01612
0.92000	0.06000	0.01391
0.93000	0.06000	0.01160
0.94000	0.06000	0.00929
0.95000	0.06000	0.00703
0.96000	0.06000	0.00492
0.97000	0.06000	0.00305
0.98000	0.06000	0.00151
0.99000	0.06000	0.00044
1.00000	0.06000	0.00000
0.00000	0.07000	0.00000
0.01000	0.07000	0.00020
0.02000	0.07000	0.00060
0.03000	0.07000	0.00109
0.04000	0.07000	0.00154
0.05000	0.07000	0.00188
0.06000	0.07000	0.00203
0.07000	0.07000	0.00194
0.08000	0.07000	0.00158
0.09000	0.07000	0.00090
0.10000	0.07000	-0.00010
0.11000	0.07000	-0.00147
0.12000	0.07000	-0.00320
0.13000	0.07000	-0.00532
0.14000	0.07000	-0.00784
0.15000	0.07000	-0.01076
0.16000	0.07000	-0.01411
0.17000	0.07000	-0.01789
0.18000	0.07000	-0.02212
0.19000	0.07000	-0.02680
0.20000	0.07000	-0.03193
0.21000	0.07000	-0.03754
0.22000	0.07000	-0.04360
0.23000	0.07000	-0.05011
0.24000	0.07000	-0.05706
0.25000	0.07000	-0.06442
0.26000	0.07000	-0.07216
0.27000	0.07000	-0.08023
0.28000	0.07000	-0.08859
0.29000	0.07000	-0.09718
0.30000	0.07000	-0.10594
0.31000	0.07000	-0.11480
0.32000	0.07000	-0.12368
0.33000	0.07000	-0.13251
0.34000	0.07000	-0.14122
0.35000	0.07000	-0.14973
0.36000	0.07000	-0.15797
0.37000	0.07000	-0.16587
0.38000	0.07000	-0.17336
0.39000	0.07000	-0.18040
0.40000	0.07000	-0.18692
0.41000	0.07000	-0.19289
0.42000	0.07000	-0.19825
0.43000	0.07000	-0.20298
0.44000	0.07000	-0.20703
0.45000	0.07000	-0.21040
0.46000	0.07000	-0.21305
0.47000	0.07000	-0.21497
0.48000	0.07000	-0.21614
0.49000	0.07000	-0.21655
0.50000	0.07000	-0.21621
0.51000	0.07000	-0.21509
0.52000	0.07000	-0.21321
0.53000	0.07000	-0.21056
0.54000	0.07000	-0.20715
0.55000	0.07000	-0.20299
0.56000	0.07000	-0.19809
0.57000	0.07000	-0.19247
0.58000	0.07000	-0.18615
0.59000	0.07000	-0.17916
0.60000	0.07000	-0.17153
0.61000	0.07000	-0.16332
0.62000	0.07000	-0.15456
0.63000	0.07000	-0.14530
0.64000	0.07000	-0.13563
0.65000	0.07000	-0.12560
0.66000	0.07000	-0.11529
0.67000	0.07000	-0.10480
0.68000	0.07000	-0.09420
0.69000	0.07000	-0.08360
0.70000	0.07000	-0.07309
0.71000	0.07000	-0.06277
0.72000	0.07000	-0.05274
0.73000	0.07000	-0.04310
0.74000	0.07000	-0.03393
0.75000	0.07000	-0.02531
0.76000	0.07000	-0.01732
0.77000	0.07000	-0.01003
0.78000	0.07000	-0.00347
0.79000	0.07000	0.00230
0.80000	0.07000	0.00728
0.81000	0.07000	0.01145
0.82000	0.07000	0.01482
0.83000	0.07000	0.01741
0.84000	0.07000	0.01924
0.85000	0.07000	0.02037
0.86000	0.07000	0.02084
0.87000	0.07000	0.02072
0.88000	0.07000	0.02007
0.89000	0.07000	0.01897
0.90000	0.07000	0.01748
0.91000	0.07000	0.01569
0.92000	0.07000	0.01367
0.93000	0.07000	0.01151
0.94000	0.07000	0.00929
0.95000	0.07000	0.00708
0.96000	0.07000	0.00499
0.97000	0.07000	0.00310
0.98000	0.07000	0.00154
0.99000	0.07000	0.00045
1.00000	0.07000	0.00000
0.00000	0.08000	0.00000
0.01000	0.08000	0.00016
0.02000	0.08000	0.00048
0.03000	0.08000	0.00082
0.04000	0.08000	0.00108
0.05000	0.08000	0.00117
0.06000	0.08000	0.00102
0.07000	0.08000	0.00060
0.08000	0.08000	-0.00014
0.09000	0.08000	-0.00123
0.10000	0.08000	-0.00270
0.11000	0.08000	-0.00457
0.12000	0.08000	-0.00686
0.13000	0.08000	-0.00958
0.14000	0.08000	-0.01275
0.15000	0.08000	-0.01638
0.16000	0.08000	-0.02048
0.17000	0.08000	-0.02508
0.18000	0.08000	-0.03017
0.19000	0.08000	-0.03576
0.20000	0.08000	-0.04187
0.21000	0.08000	-0.04847
0.22000	0.08000	-0.05557
0.23000	0.08000	-0.06314
0.24000	0.08000	-0.07116
0.25000	0.08000	-0.07958
0.26000	0.08000	-0.08837
0.27000	0.08000	-0.09746
0.28000	0.08000	-0.10679
0.29000	0.08000	-0.11629
0.30000	0.08000	-0.12590
0.31000	0.08000	-0.13553
0.32000	0.08000	-0.14510
0.33000	0.08000	-0.15454
0.34000	0.08000	-0.16377
0.35000	0.08000	-0.17271
0.36000	0.08000	-0.18131
0.37000	0.08000	-0.18950
0.38000	0.08000	-0.19722
0.39000	0.08000	-0.20443
0.40000	0.08000	-0.21109
0.41000	0.08000	-0.21714
0.42000	0.08000	-0.22258
0.43000	0.08000	-0.22736
0.44000	0.08000	-0.23146
0.45000	0.08000	-0.23487
0.46000	0.08000	-0.23757
0.47000	0.08000	-0.23954
0.48000	0.08000	-0.24077
0.49000	0.08000	-0.24126
0.50000	0.08000	-0.24100
0.51000	0.08000	-0.23998
0.52000	0.08000	-0.23819
0.53000	0.08000	-0.23564
0.54000	0.08000	-0.23233
0.55000	0.08000	-0.22825
0.56000	0.08000	-0.22342
0.57000	0.08000	-0.21784
0.58000	0.08000	-0.21154
0.59000	0.08000	-0.20452
0.60000	0.08000	-0.19683
0.61000	0.08000	-0.18848
0.62000	0.08000	-0.17953
0.63000	0.08000	-0.17002
0.64000	0.08000	-0.16000
0.65000	0.08000	-0.14955
0.66000	0.08000	-0.13873
0.67000	0.08000	-0.12764
0.68000	0.08000	-0.11635
0.69000	0.08000	-0.10497
0.70000	0.08000	-0.09361
0.71000	0.08000	-0.08235
0.72000	0.08000	-0.07132
0.73000	0.08000	-0.06061
0.74000	0.08000	-0.05033
0.75000	0.08000	-0.04057
0.76000	0.08000	-0.03142
0.77000	0.08000	-0.02294
0.78000	0.08000	-0.01521
0.79000	0.08000	-0.00828
0.80000	0.08000	-0.00217
0.81000	0.08000	0.00309
0.82000	0.08000	0.00750
0.83000	0.08000	0.01107
0.84000	0.08000	0.01383
0.85000	0.08000	0.01580
0.86000	0.08000	0.01704
0.87000	0.08000	0.01761
0.88000	0.08000	0.01757
0.89000	0.08000	0.01700
0.90000	0.08000	0.01597
0.91000	0.08000	0.01455
0.92000	0.08000	0.01285
0.93000	0.08000	0.01093
0.94000	0.08000	0.00890
0.95000	0.08000	0.00683
0.96000	0.08000	0.00484
0.97000	0.08000	0.00302
0.98000	0.08000	0.00150
0.99000	0.08000	0.00043
1.00000	0.08000	0.00000
0.00000	0.09000	0.00000
0.01000	0.09000	0.00012
0.02000	0.09000	0.00032
0.03000	0.09000	0.00047
0.04000	0.09000	0.00048
0.05000	0.09000	0.00027
0.06000	0.09000	-0.00022
0.07000	0.09000	-0.00104
0.08000	0.09000	-0.00222
0.09000	0.09000	-0.00379
0.10000	0.09000	-0.00579
0.11000	0.09000	-0.00822
0.12000	0.09000	-0.01111
0.13000	0.09000	-0.01449
0.14000	0.09000	-0.01836
0.15000	0.09000	-0.02274
0.16000	0.09000	-0.02765
0.17000	0.09000	-0.03309
0.18000	0.09000	-0.03908
0.19000	0.09000	-0.04561
0.20000	0.09000	-0.05268
0.21000	0.09000	-0.06029
0.22000	0.09000	-0.06840
0.23000	0.09000	-0.07698
0.24000	0.09000	-0.08601
0.25000	0.09000	-0.09541
0.26000	0.09000	-0.10514
0.27000	0.09000	-0.11512
0.28000	0.09000	-0.12529
0.29000	0.09000	-0.13556
0.30000	0.09000	-0.14585
0.31000	0.09000	-0.15608
0.32000	0.09000	-0.16617
0.33000	0.09000	-0.17604
0.34000	0.09000	-0.18563
0.35000	0.09000	-0.19487
0.36000	0.09000	-0.20370
0.37000	0.09000	-0.21207
0.38000	0.09000	-0.21993
0.39000	0.09000	-0.22725
0.40000	0.09000	-0.23399
0.41000	0.09000	-0.24012
0.42000	0.09000	-0.24562
0.43000	0.09000	-0.25047
0.44000	0.09000	-0.25465
0.45000	0.09000	-0.25815
0.46000	0.09000	-0.26096
0.47000	0.09000	-0.26305
0.48000	0.09000	-0.26443
0.49000	0.09000	-0.26508
0.50000	0.09000	-0.26499
0.51000	0.09000	-0.26416
0.52000	0.09000	-0.26257
0.53000	0.09000	-0.26023
0.54000	0.09000	-0.25712
0.55000	0.09000	-0.25325
0.56000	0.09000	-0.24861
0.57000	0.09000	-0.24321
0.58000	0.09000	-0.23705
0.59000	0.09000	-0.23015
0.60000	0.09000	-0.22252
0.61000	0.09000	-0.21418
0.62000	0.09000	-0.20517
0.63000	0.09000	-0.19553
0.64000	0.09000	-0.18530
0.65000	0.09000	-0.17454
0.66000	0.09000	-0.16333
0.67000	0.09000	-0.15173
0.68000	0.09000	-0.13985
0.69000	0.09000	-0.12777
0.70000	0.09000	-0.11560
0.71000	0.09000	-0.10346
0.72000	0.09000	-0.09145
0.73000	0.09000	-0.07970
0.74000	0.09000	-0.06831
0.75000	0.09000	-0.05739
0.76000	0.09000	-0.04705
0.77000	0.09000	-0.03737
0.78000	0.09000	-0.02843
0.79000	0.09000	-0.02029
0.80000	0.09000	-0.01300
0.81000	0.09000	-0.00659
0.82000	0.09000	-0.00108
0.83000	0.09000	0.00353
0.84000	0.09000	0.00727
0.85000	0.09000	0.01016
0.86000	0.09000	0.01225
0.87000	0.09000	0.01359
0.88000	0.09000	0.01424
0.89000	0.09000	0.01428
0.90000	0.09000	0.01379
0.91000	0.09000	0.01284
0.92000	0.09000	0.01152
0.93000	0.09000	0.00994
0.94000	0.09000	0.00817
0.95000	0.09000	0.00633
0.96000	0.09000	0.00451
0.97000	0.09000	0.00282
0.98000	0.09000	0.00141
0.99000	0.09000	0.00041
1.00000	0.09000	0.00000
0.00000	0.10000	0.00000
0.01000	0.10000	0.00007
0.02000	0.10000	0.00012
0.03000	0.10000	0.00005
0.04000	0.10000	-0.00024
0.05000	0.10000	-0.00080
0.06000	0.10000	-0.00169
0.07000	0.10000	-0.00296
0.08000	0.10000	-0.00463
0.09000	0.10000	-0.00674
0.10000	0.10000	-0.00930
0.11000	0.10000	-0.01235
0.12000	0.10000	-0.01590
0.13000	0.10000	-0.01997
0.14000	0.10000	-0.02459
0.15000	0.10000	-0.02975
0.16000	0.10000	-0.03549
0.17000	0.10000	-0.04181
0.18000	0.10000	-0.04870
0.19000	0.10000	-0.05617
0.20000	0.10000	-0.06420
0.21000	0.10000	-0.07277
0.22000	0.10000	-0.08184
0.23000	0.10000	-0.09138
0.24000	0.10000	-0.10132
0.25000	0.10000	-0.11160
0.26000	0.10000	-0.12215
0.27000	0.10000	-0.13289
0.28000	0.10000	-0.14374
0.29000	0.10000	-0.15461
0.30000	0.10000	-0.16542
0.31000	0.10000	-0.17609
0.32000	0.10000	-0.18655
0.33000	0.10000	-0.19672
0.34000	0.10000	-0.20655
0.35000	0.10000	-0.21597
0.36000	0.10000	-0.22493
0.37000	0.10000	-0.23340
0.38000	0.10000	-0.24134
0.39000	0.10000	-0.24872
0.40000	0.10000	-0.25552
0.41000	0.10000	-0.26171
0.42000	0.10000	-0.26728
0.43000	0.10000	-0.27221
0.44000	0.10000	-0.27649
0.45000	0.10000	-0.28011
0.46000	0.10000	-0.28305
0.47000	0.10000	-0.28531
0.48000	0.10000	-0.28688
0.49000	0.10000	-0.28774
0.50000	0.10000	-0.28788
0.51000	0.10000	-0.28730
0.52000	0.10000	-0.28599
0.53000	0.10000	-0.28393
0.54000	0.10000	-0.28111
0.55000	0.10000	-0.27754
0.56000	0.10000	-0.27319
0.57000	0.10000	-0.26807
0.58000	0.10000	-0.26218
0.59000	0.10000	-0.25551
0.60000	0.10000	-0.24807
0.61000	0.10000	-0.23988
0.62000	0.10000	-0.23096
0.63000	0.10000	-0.22133
0.64000	0.10000	-0.21103
0.65000	0.10000	-0.20011
0.66000	0.10000	-0.18863
0.67000	0.10000	-0.17666
0.68000	0.10000	-0.16428
0.69000	0.10000	-0.15160
0.70000	0.10000	-0.13872
0.71000	0.10000	-0.12575
0.72000	0.10000	-0.11282
0.73000	0.10000	-0.10004
0.74000	0.10000	-0.08755
0.75000	0.10000	-0.07548
0.76000	0.10000	-0.06393
0.77000	0.10000	-0.05301
0.78000	0.10000	-0.04282
0.79000	0.10000	-0.03343
0.80000	0.10000	-0.02492
0.81000	0.10000	-0.01732
0.82000	0.10000	-0.01065
0.83000	0.10000	-0.00493
0.84000	0.10000	-0.00016
0.85000	0.10000	0.00371
0.86000	0.10000	0.00670
0.87000	0.10000	0.00887
0.88000	0.10000	0.01027
0.89000	0.10000	0.01099
0.90000	0.10000	0.01109
0.91000	0.10000	0.01067
0.92000	0.10000	0.00982
0.93000	0.10000	0.00863
0.94000	0.10000	0.00720
0.95000	0.10000	0.00563
0.96000	0.10000	0.00404
0.97000	0.10000	0.00254
0.98000	0.10000	0.00127
0.99000	0.10000	0.00037
1.00000	0.10000	0.00000
0.00000	0.11000	0.00000
0.01000	0.11000	0.00000
0.02000	0.11000	-0.00011
0.03000	0.11000	-0.00045
0.04000	0.11000	-0.00107
0.05000	0.11000	-0.00203
0.06000	0.11000	-0.00338
0.07000	0.11000	-0.00514
0.08000	0.11000	-0.00735
0.09000	0.11000	-0.01003
0.10000	0.11000	-0.01321
0.11000	0.11000	-0.01691
0.12000	0.11000	-0.02115
0.13000	0.11000	-0.02596
0.14000	0.11000	-0.03134
0.15000	0.11000	-0.03732
0.16000	0.11000	-0.04390
0.17000	0.11000	-0.05109
0.18000	0.11000	-0.05889
0.19000	0.11000	-0.06727
0.20000	0.11000	-0.07622
0.21000	0.11000	-0.08570
0.22000	0.11000	-0.09567
0.23000	0.11000	-0.10606
0.24000	0.11000	-0.11681
0.25000	0.11000	-0.12785
0.26000	0.11000	-0.13908
0.27000	0.11000	-0.15043
0.28000	0.11000	-0.16181
0.29000	0.11000	-0.17313
0.30000	0.11000	-0.18432
0.31000	0.11000	-0.19529
0.32000	0.11000	-0.20598
0.33000	0.11000	-0.21633
0.34000	0.11000	-0.22628
0.35000	0.11000	-0.23578
0.36000	0.11000	-0.24481
0.37000	0.11000	-0.25332
0.38000	0.11000	-0.26129
0.39000	0.11000	-0.26869
0.40000	0.11000	-0.27552
0.41000	0.11000	-0.28175
0.42000	0.11000	-0.28737
0.43000	0.11000	-0.29237
0.44000	0.11000	-0.29674
0.45000	0.11000	-0.30047
0.46000	0.11000	-0.30355
0.47000	0.11000	-0.30598
0.48000	0.11000	-0.30773
0.49000	0.11000	-0.30882
0.50000	0.11000	-0.30921
0.51000	0.11000	-0.30891
0.52000	0.11000	-0.30790
0.53000	0.11000	-0.30618
0.54000	0.11000	-0.30371
0.55000	0.11000	-0.30050
0.56000	0.11000	-0.29654
0.57000	0.11000	-0.29180