VARIABLES="X","Y","U","V"
ZONE  F=POINT
I=101, J=101
0.00000	0.00000	0.00000	0.00000
0.01000	0.00000	0.00000	0.00000
0.02000	0.00000	0.00000	0.00000
0.03000	0.00000	0.00000	0.00000
0.04000	0.00000	0.00000	0.00000
0.05000	0.00000	0.00000	0.00000
0.06000	0.00000	0.00000	0.00000
0.07000	0.00000	0.00000	0.00000
0.08000	0.00000	0.00000	0.00000
0.09000	0.00000	0.00000	0.00000
0.10000	0.00000	0.00000	0.00000
0.11000	0.00000	0.00000	0.00000
0.12000	0.00000	0.00000	0.00000
0.13000	0.00000	0.00000	0.00000
0.14000	0.00000	0.00000	0.00000
0.15000	0.00000	0.00000	0.00000
0.16000	0.00000	0.00000	0.00000
0.17000	0.00000	0.00000	0.00000
0.18000	0.00000	0.00000	0.00000
0.19000	0.00000	0.00000	0.00000
0.20000	0.00000	0.00000	0.00000
0.21000	0.00000	0.00000	0.00000
0.22000	0.00000	0.00000	0.00000
0.23000	0.00000	0.00000	0.00000
0.24000	0.00000	0.00000	0.00000
0.25000	0.00000	0.00000	0.00000
0.26000	0.00000	0.00000	0.00000
0.27000	0.00000	0.00000	0.00000
0.28000	0.00000	0.00000	0.00000
0.29000	0.00000	0.00000	0.00000
0.30000	0.00000	0.00000	0.00000
0.31000	0.00000	0.00000	0.00000
0.32000	0.00000	0.00000	0.00000
0.33000	0.00000	0.00000	0.00000
0.34000	0.00000	0.00000	0.00000
0.35000	0.00000	0.00000	0.00000
0.36000	0.00000	0.00000	0.00000
0.37000	0.00000	0.00000	0.00000
0.38000	0.00000	0.00000	0.00000
0.39000	0.00000	0.00000	0.00000
0.40000	0.00000	0.00000	0.00000
0.41000	0.00000	0.00000	0.00000
0.42000	0.00000	0.00000	0.00000
0.43000	0.00000	0.00000	0.00000
0.44000	0.00000	0.00000	0.00000
0.45000	0.00000	0.00000	0.00000
0.46000	0.00000	0.00000	0.00000
0.47000	0.00000	0.00000	0.00000
0.48000	0.00000	0.00000	0.00000
0.49000	0.00000	0.00000	0.00000
0.50000	0.00000	0.00000	0.00000
0.51000	0.00000	0.00000	0.00000
0.52000	0.00000	0.00000	0.00000
0.53000	0.00000	0.00000	0.00000
0.54000	0.00000	0.00000	0.00000
0.55000	0.00000	0.00000	0.00000
0.56000	0.00000	0.00000	0.00000
0.57000	0.00000	0.00000	0.00000
0.58000	0.00000	0.00000	0.00000
0.59000	0.00000	0.00000	0.00000
0.60000	0.00000	0.00000	0.00000
0.61000	0.00000	0.00000	0.00000
0.62000	0.00000	0.00000	0.00000
0.63000	0.00000	0.00000	0.00000
0.64000	0.00000	0.00000	0.00000
0.65000	0.00000	0.00000	0.00000
0.66000	0.00000	0.00000	0.00000
0.67000	0.00000	0.00000	0.00000
0.68000	0.00000	0.00000	0.00000
0.69000	0.00000	0.00000	0.00000
0.70000	0.00000	0.00000	0.00000
0.71000	0.00000	0.00000	0.00000
0.72000	0.00000	0.00000	0.00000
0.73000	0.00000	0.00000	0.00000
0.74000	0.00000	0.00000	0.00000
0.75000	0.00000	0.00000	0.00000
0.76000	0.00000	0.00000	0.00000
0.77000	0.00000	0.00000	0.00000
0.78000	0.00000	0.00000	0.00000
0.79000	0.00000	0.00000	0.00000
0.80000	0.00000	0.00000	0.00000
0.81000	0.00000	0.00000	0.00000
0.82000	0.00000	0.00000	0.00000
0.83000	0.00000	0.00000	0.00000
0.84000	0.00000	0.00000	0.00000
0.85000	0.00000	0.00000	0.00000
0.86000	0.00000	0.00000	0.00000
0.87000	0.00000	0.00000	0.00000
0.88000	0.00000	0.00000	0.00000
0.89000	0.00000	0.00000	0.00000
0.90000	0.00000	0.00000	0.00000
0.91000	0.00000	0.00000	0.00000
0.92000	0.00000	0.00000	0.00000
0.93000	0.00000	0.00000	0.00000
0.94000	0.00000	0.00000	0.00000
0.95000	0.00000	0.00000	0.00000
0.96000	0.00000	0.00000	0.00000
0.97000	0.00000	0.00000	0.00000
0.98000	0.00000	0.00000	0.00000
0.99000	0.00000	0.00000	0.00000
1.00000	0.00000	0.00000	0.00000
0.00000	0.01000	0.00000	0.00000
0.01000	0.01000	0.00005	-0.00005
0.02000	0.01000	0.00022	-0.00012
0.03000	0.01000	0.00049	-0.00018
0.04000	0.01000	0.00082	-0.00021
0.05000	0.01000	0.00117	-0.00021
0.06000	0.01000	0.00151	-0.00020
0.07000	0.01000	0.00182	-0.00018
0.08000	0.01000	0.00209	-0.00015
0.09000	0.01000	0.00229	-0.00012
0.10000	0.01000	0.00244	-0.00008
0.11000	0.01000	0.00252	-0.00005
0.12000	0.01000	0.00253	-0.00001
0.13000	0.01000	0.00248	0.00002
0.14000	0.01000	0.00236	0.00005
0.15000	0.01000	0.00219	0.00008
0.16000	0.01000	0.00195	0.00011
0.17000	0.01000	0.00166	0.00014
0.18000	0.01000	0.00131	0.00017
0.19000	0.01000	0.00089	0.00020
0.20000	0.01000	0.00041	0.00023
0.21000	0.01000	-0.00013	0.00027
0.22000	0.01000	-0.00076	0.00030
0.23000	0.01000	-0.00145	0.00034
0.24000	0.01000	-0.00224	0.00039
0.25000	0.01000	-0.00310	0.00043
0.26000	0.01000	-0.00406	0.00048
0.27000	0.01000	-0.00512	0.00053
0.28000	0.01000	-0.00626	0.00058
0.29000	0.01000	-0.00751	0.00064
0.30000	0.01000	-0.00885	0.00069
0.31000	0.01000	-0.01029	0.00074
0.32000	0.01000	-0.01181	0.00080
0.33000	0.01000	-0.01342	0.00084
0.34000	0.01000	-0.01510	0.00089
0.35000	0.01000	-0.01685	0.00093
0.36000	0.01000	-0.01866	0.00096
0.37000	0.01000	-0.02050	0.00099
0.38000	0.01000	-0.02237	0.00101
0.39000	0.01000	-0.02424	0.00102
0.40000	0.01000	-0.02610	0.00102
0.41000	0.01000	-0.02793	0.00100
0.42000	0.01000	-0.02969	0.00098
0.43000	0.01000	-0.03138	0.00094
0.44000	0.01000	-0.03296	0.00088
0.45000	0.01000	-0.03441	0.00081
0.46000	0.01000	-0.03570	0.00073
0.47000	0.01000	-0.03682	0.00063
0.48000	0.01000	-0.03773	0.00052
0.49000	0.01000	-0.03843	0.00040
0.50000	0.01000	-0.03888	0.00026
0.51000	0.01000	-0.03908	0.00012
0.52000	0.01000	-0.03901	-0.00004
0.53000	0.01000	-0.03865	-0.00020
0.54000	0.01000	-0.03801	-0.00037
0.55000	0.01000	-0.03708	-0.00054
0.56000	0.01000	-0.03587	-0.00071
0.57000	0.01000	-0.03437	-0.00087
0.58000	0.01000	-0.03261	-0.00103
0.59000	0.01000	-0.03060	-0.00117
0.60000	0.01000	-0.02836	-0.00131
0.61000	0.01000	-0.02592	-0.00142
0.62000	0.01000	-0.02330	-0.00151
0.63000	0.01000	-0.02055	-0.00159
0.64000	0.01000	-0.01770	-0.00163
0.65000	0.01000	-0.01480	-0.00166
0.66000	0.01000	-0.01187	-0.00165
0.67000	0.01000	-0.00898	-0.00162
0.68000	0.01000	-0.00615	-0.00156
0.69000	0.01000	-0.00343	-0.00148
0.70000	0.01000	-0.00086	-0.00138
0.71000	0.01000	0.00153	-0.00126
0.72000	0.01000	0.00371	-0.00112
0.73000	0.01000	0.00565	-0.00097
0.74000	0.01000	0.00734	-0.00082
0.75000	0.01000	0.00877	-0.00066
0.76000	0.01000	0.00993	-0.00050
0.77000	0.01000	0.01082	-0.00035
0.78000	0.01000	0.01145	-0.00020
0.79000	0.01000	0.01183	-0.00007
0.80000	0.01000	0.01198	0.00006
0.81000	0.01000	0.01193	0.00016
0.82000	0.01000	0.01168	0.00026
0.83000	0.01000	0.01127	0.00033
0.84000	0.01000	0.01072	0.00040
0.85000	0.01000	0.01007	0.00044
0.86000	0.01000	0.00932	0.00048
0.87000	0.01000	0.00851	0.00050
0.88000	0.01000	0.00765	0.00051
0.89000	0.01000	0.00677	0.00052
0.90000	0.01000	0.00587	0.00051
0.91000	0.01000	0.00498	0.00050
0.92000	0.01000	0.00410	0.00049
0.93000	0.01000	0.00326	0.00046
0.94000	0.01000	0.00246	0.00043
0.95000	0.01000	0.00173	0.00038
0.96000	0.01000	0.00109	0.00032
0.97000	0.01000	0.00057	0.00023
0.98000	0.01000	0.00021	0.00013
0.99000	0.01000	0.00002	0.00002
1.00000	0.01000	0.00000	0.00000
0.00000	0.02000	0.00000	0.00000
0.01000	0.02000	0.00012	-0.00022
0.02000	0.02000	0.00044	-0.00044
0.03000	0.02000	0.00090	-0.00060
0.04000	0.02000	0.00144	-0.00068
0.05000	0.02000	0.00200	-0.00069
0.06000	0.02000	0.00254	-0.00065
0.07000	0.02000	0.00303	-0.00058
0.08000	0.02000	0.00343	-0.00047
0.09000	0.02000	0.00372	-0.00035
0.10000	0.02000	0.00390	-0.00022
0.11000	0.02000	0.00396	-0.00009
0.12000	0.02000	0.00390	0.00004
0.13000	0.02000	0.00371	0.00017
0.14000	0.02000	0.00339	0.00029
0.15000	0.02000	0.00296	0.00041
0.16000	0.02000	0.00241	0.00053
0.17000	0.02000	0.00173	0.00065
0.18000	0.02000	0.00094	0.00077
0.19000	0.02000	0.00001	0.00089
0.20000	0.02000	-0.00105	0.00103
0.21000	0.02000	-0.00224	0.00117
0.22000	0.02000	-0.00359	0.00132
0.23000	0.02000	-0.00509	0.00148
0.24000	0.02000	-0.00675	0.00165
0.25000	0.02000	-0.00858	0.00183
0.26000	0.02000	-0.01058	0.00201
0.27000	0.02000	-0.01276	0.00220
0.28000	0.02000	-0.01511	0.00239
0.29000	0.02000	-0.01764	0.00259
0.30000	0.02000	-0.02034	0.00278
0.31000	0.02000	-0.02320	0.00296
0.32000	0.02000	-0.02621	0.00313
0.33000	0.02000	-0.02935	0.00329
0.34000	0.02000	-0.03261	0.00343
0.35000	0.02000	-0.03596	0.00355
0.36000	0.02000	-0.03938	0.00365
0.37000	0.02000	-0.04284	0.00371
0.38000	0.02000	-0.04630	0.00374
0.39000	0.02000	-0.04974	0.00373
0.40000	0.02000	-0.05310	0.00368
0.41000	0.02000	-0.05636	0.00359
0.42000	0.02000	-0.05947	0.00345
0.43000	0.02000	-0.06239	0.00326
0.44000	0.02000	-0.06508	0.00303
0.45000	0.02000	-0.06750	0.00274
0.46000	0.02000	-0.06961	0.00241
0.47000	0.02000	-0.07137	0.00203
0.48000	0.02000	-0.07276	0.00161
0.49000	0.02000	-0.07373	0.00115
0.50000	0.02000	-0.07427	0.00065
0.51000	0.02000	-0.07435	0.00012
0.52000	0.02000	-0.07396	-0.00043
0.53000	0.02000	-0.07308	-0.00099
0.54000	0.02000	-0.07171	-0.00157
0.55000	0.02000	-0.06986	-0.00214
0.56000	0.02000	-0.06753	-0.00271
0.57000	0.02000	-0.06473	-0.00326
0.58000	0.02000	-0.06150	-0.00377
0.59000	0.02000	-0.05786	-0.00425
0.60000	0.02000	-0.05385	-0.00468
0.61000	0.02000	-0.04952	-0.00506
0.62000	0.02000	-0.04491	-0.00536
0.63000	0.02000	-0.04007	-0.00560
0.64000	0.02000	-0.03508	-0.00576
0.65000	0.02000	-0.02998	-0.00583
0.66000	0.02000	-0.02486	-0.00582
0.67000	0.02000	-0.01977	-0.00572
0.68000	0.02000	-0.01478	-0.00554
0.69000	0.02000	-0.00996	-0.00529
0.70000	0.02000	-0.00536	-0.00496
0.71000	0.02000	-0.00105	-0.00457
0.72000	0.02000	0.00293	-0.00412
0.73000	0.02000	0.00653	-0.00364
0.74000	0.02000	0.00972	-0.00312
0.75000	0.02000	0.01248	-0.00259
0.76000	0.02000	0.01479	-0.00205
0.77000	0.02000	0.01665	-0.00152
0.78000	0.02000	0.01807	-0.00101
0.79000	0.02000	0.01904	-0.00053
0.80000	0.02000	0.01961	-0.00009
0.81000	0.02000	0.01980	0.00031
0.82000	0.02000	0.01964	0.00066
0.83000	0.02000	0.01917	0.00095
0.84000	0.02000	0.01843	0.00120
0.85000	0.02000	0.01747	0.00140
0.86000	0.02000	0.01632	0.00156
0.87000	0.02000	0.01502	0.00167
0.88000	0.02000	0.01362	0.00174
0.89000	0.02000	0.01214	0.00178
0.90000	0.02000	0.01062	0.00179
0.91000	0.02000	0.00908	0.00177
0.92000	0.02000	0.00756	0.00172
0.93000	0.02000	0.00608	0.00164
0.94000	0.02000	0.00467	0.00153
0.95000	0.02000	0.00337	0.00137
0.96000	0.02000	0.00222	0.00116
0.97000	0.02000	0.00127	0.00088
0.98000	0.02000	0.00056	0.00055
0.99000	0.02000	0.00013	0.00021
1.00000	0.02000	0.00000	0.00000
0.00000	0.03000	0.00000	0.00000
0.01000	0.03000	0.00018	-0.00049
0.02000	0.03000	0.00060	-0.00090
0.03000	0.03000	0.00118	-0.00117
0.04000	0.03000	0.00184	-0.00131
0.05000	0.03000	0.00251	-0.00132
0.06000	0.03000	0.00314	-0.00123
0.07000	0.03000	0.00369	-0.00106
0.08000	0.03000	0.00411	-0.00085
0.09000	0.03000	0.00439	-0.00059
0.10000	0.03000	0.00450	-0.00032
0.11000	0.03000	0.00445	-0.00004
0.12000	0.03000	0.00421	0.00024
0.13000	0.03000	0.00380	0.00052
0.14000	0.03000	0.00321	0.00080
0.15000	0.03000	0.00243	0.00107
0.16000	0.03000	0.00147	0.00134
0.17000	0.03000	0.00033	0.00161
0.18000	0.03000	-0.00100	0.00189
0.19000	0.03000	-0.00252	0.00218
0.20000	0.03000	-0.00425	0.00249
0.21000	0.03000	-0.00619	0.00281
0.22000	0.03000	-0.00835	0.00315
0.23000	0.03000	-0.01074	0.00350
0.24000	0.03000	-0.01337	0.00388
0.25000	0.03000	-0.01624	0.00426
0.26000	0.03000	-0.01935	0.00466
0.27000	0.03000	-0.02271	0.00506
0.28000	0.03000	-0.02631	0.00547
0.29000	0.03000	-0.03014	0.00586
0.30000	0.03000	-0.03419	0.00625
0.31000	0.03000	-0.03844	0.00661
0.32000	0.03000	-0.04288	0.00695
0.33000	0.03000	-0.04746	0.00725
0.34000	0.03000	-0.05217	0.00750
0.35000	0.03000	-0.05696	0.00770
0.36000	0.03000	-0.06179	0.00784
0.37000	0.03000	-0.06662	0.00791
0.38000	0.03000	-0.07140	0.00790
0.39000	0.03000	-0.07608	0.00782
0.40000	0.03000	-0.08061	0.00764
0.41000	0.03000	-0.08494	0.00737
0.42000	0.03000	-0.08900	0.00701
0.43000	0.03000	-0.09276	0.00655
0.44000	0.03000	-0.09616	0.00599
0.45000	0.03000	-0.09915	0.00535
0.46000	0.03000	-0.10169	0.00461
0.47000	0.03000	-0.10374	0.00378
0.48000	0.03000	-0.10526	0.00288
0.49000	0.03000	-0.10622	0.00191
0.50000	0.03000	-0.10660	0.00088
0.51000	0.03000	-0.10637	-0.00020
0.52000	0.03000	-0.10553	-0.00131
0.53000	0.03000	-0.10407	-0.00245
0.54000	0.03000	-0.10199	-0.00359
0.55000	0.03000	-0.09930	-0.00473
0.56000	0.03000	-0.09602	-0.00583
0.57000	0.03000	-0.09216	-0.00690
0.58000	0.03000	-0.08776	-0.00790
0.59000	0.03000	-0.08287	-0.00882
0.60000	0.03000	-0.07751	-0.00965
0.61000	0.03000	-0.07176	-0.01037
0.62000	0.03000	-0.06567	-0.01096
0.63000	0.03000	-0.05929	-0.01142
0.64000	0.03000	-0.05271	-0.01172
0.65000	0.03000	-0.04600	-0.01187
0.66000	0.03000	-0.03924	-0.01187
0.67000	0.03000	-0.03250	-0.01170
0.68000	0.03000	-0.02586	-0.01138
0.69000	0.03000	-0.01941	-0.01090
0.70000	0.03000	-0.01321	-0.01029
0.71000	0.03000	-0.00734	-0.00955
0.72000	0.03000	-0.00186	-0.00870
0.73000	0.03000	0.00317	-0.00777
0.74000	0.03000	0.00771	-0.00677
0.75000	0.03000	0.01172	-0.00573
0.76000	0.03000	0.01517	-0.00467
0.77000	0.03000	0.01805	-0.00362
0.78000	0.03000	0.02036	-0.00259
0.79000	0.03000	0.02210	-0.00161
0.80000	0.03000	0.02330	-0.00070
0.81000	0.03000	0.02397	0.00014
0.82000	0.03000	0.02417	0.00089
0.83000	0.03000	0.02393	0.00154
0.84000	0.03000	0.02331	0.00210
0.85000	0.03000	0.02234	0.00256
0.86000	0.03000	0.02109	0.00292
0.87000	0.03000	0.01960	0.00320
0.88000	0.03000	0.01792	0.00340
0.89000	0.03000	0.01611	0.00352
0.90000	0.03000	0.01421	0.00357
0.91000	0.03000	0.01225	0.00356
0.92000	0.03000	0.01029	0.00349
0.93000	0.03000	0.00836	0.00335
0.94000	0.03000	0.00651	0.00314
0.95000	0.03000	0.00479	0.00283
0.96000	0.03000	0.00324	0.00242
0.97000	0.03000	0.00193	0.00190
0.98000	0.03000	0.00091	0.00126
0.99000	0.03000	0.00025	0.00058
1.00000	0.03000	0.00000	0.00000
0.00000	0.04000	0.00000	0.00000
0.01000	0.04000	0.00021	-0.00082
0.02000	0.04000	0.00069	-0.00144
0.03000	0.04000	0.00133	-0.00183
0.04000	0.04000	0.00203	-0.00201
0.05000	0.04000	0.00273	-0.00200
0.06000	0.04000	0.00335	-0.00183
0.07000	0.04000	0.00386	-0.00154
0.08000	0.04000	0.00421	-0.00117
0.09000	0.04000	0.00437	-0.00074
0.10000	0.04000	0.00433	-0.00028
0.11000	0.04000	0.00407	0.00020
0.12000	0.04000	0.00358	0.00069
0.13000	0.04000	0.00286	0.00117
0.14000	0.04000	0.00190	0.00166
0.15000	0.04000	0.00070	0.00214
0.16000	0.04000	-0.00074	0.00262
0.17000	0.04000	-0.00244	0.00312
0.18000	0.04000	-0.00438	0.00362
0.19000	0.04000	-0.00659	0.00415
0.20000	0.04000	-0.00908	0.00470
0.21000	0.04000	-0.01184	0.00527
0.22000	0.04000	-0.01490	0.00587
0.23000	0.04000	-0.01826	0.00650
0.24000	0.04000	-0.02192	0.00714
0.25000	0.04000	-0.02588	0.00781
0.26000	0.04000	-0.03015	0.00848
0.27000	0.04000	-0.03472	0.00916
0.28000	0.04000	-0.03958	0.00982
0.29000	0.04000	-0.04470	0.01047
0.30000	0.04000	-0.05007	0.01108
0.31000	0.04000	-0.05565	0.01164
0.32000	0.04000	-0.06142	0.01215
0.33000	0.04000	-0.06732	0.01258
0.34000	0.04000	-0.07332	0.01293
0.35000	0.04000	-0.07935	0.01318
0.36000	0.04000	-0.08538	0.01331
0.37000	0.04000	-0.09133	0.01332
0.38000	0.04000	-0.09715	0.01320
0.39000	0.04000	-0.10278	0.01294
0.40000	0.04000	-0.10815	0.01254
0.41000	0.04000	-0.11322	0.01198
0.42000	0.04000	-0.11791	0.01128
0.43000	0.04000	-0.12218	0.01042
0.44000	0.04000	-0.12597	0.00942
0.45000	0.04000	-0.12923	0.00827
0.46000	0.04000	-0.13193	0.00700
0.47000	0.04000	-0.13402	0.00560
0.48000	0.04000	-0.13547	0.00409
0.49000	0.04000	-0.13627	0.00249
0.50000	0.04000	-0.13638	0.00080
0.51000	0.04000	-0.13579	-0.00094
0.52000	0.04000	-0.13451	-0.00273
0.53000	0.04000	-0.13252	-0.00453
0.54000	0.04000	-0.12984	-0.00634
0.55000	0.04000	-0.12647	-0.00812
0.56000	0.04000	-0.12244	-0.00985
0.57000	0.04000	-0.11778	-0.01151
0.58000	0.04000	-0.11253	-0.01307
0.59000	0.04000	-0.10671	-0.01450
0.60000	0.04000	-0.10039	-0.01579
0.61000	0.04000	-0.09362	-0.01691
0.62000	0.04000	-0.08645	-0.01783
0.63000	0.04000	-0.07897	-0.01855
0.64000	0.04000	-0.07123	-0.01904
0.65000	0.04000	-0.06333	-0.01931
0.66000	0.04000	-0.05534	-0.01932
0.67000	0.04000	-0.04734	-0.01910
0.68000	0.04000	-0.03942	-0.01864
0.69000	0.04000	-0.03167	-0.01794
0.70000	0.04000	-0.02417	-0.01703
0.71000	0.04000	-0.01700	-0.01592
0.72000	0.04000	-0.01023	-0.01464
0.73000	0.04000	-0.00393	-0.01321
0.74000	0.04000	0.00184	-0.01167
0.75000	0.04000	0.00703	-0.01004
0.76000	0.04000	0.01161	-0.00838
0.77000	0.04000	0.01555	-0.00671
0.78000	0.04000	0.01884	-0.00506
0.79000	0.04000	0.02147	-0.00347
0.80000	0.04000	0.02345	-0.00197
0.81000	0.04000	0.02482	-0.00057
0.82000	0.04000	0.02559	0.00070
0.83000	0.04000	0.02582	0.00182
0.84000	0.04000	0.02555	0.00280
0.85000	0.04000	0.02484	0.00362
0.86000	0.04000	0.02374	0.00430
0.87000	0.04000	0.02231	0.00483
0.88000	0.04000	0.02061	0.00523
0.89000	0.04000	0.01870	0.00550
0.90000	0.04000	0.01663	0.00565
0.91000	0.04000	0.01447	0.00568
0.92000	0.04000	0.01226	0.00561
0.93000	0.04000	0.01005	0.00542
0.94000	0.04000	0.00791	0.00511
0.95000	0.04000	0.00589	0.00465
0.96000	0.04000	0.00405	0.00402
0.97000	0.04000	0.00246	0.00321
0.98000	0.04000	0.00120	0.00223
0.99000	0.04000	0.00034	0.00112
1.00000	0.04000	0.00000	0.00000
0.00000	0.05000	0.00000	0.00000
0.01000	0.05000	0.00022	-0.00118
0.02000	0.05000	0.00072	-0.00202
0.03000	0.05000	0.00135	-0.00251
0.04000	0.05000	0.00203	-0.00271
0.05000	0.05000	0.00268	-0.00264
0.06000	0.05000	0.00322	-0.00236
0.07000	0.05000	0.00360	-0.00192
0.08000	0.05000	0.00379	-0.00136
0.09000	0.05000	0.00375	-0.00071
0.10000	0.05000	0.00347	-0.00002
0.11000	0.05000	0.00291	0.00071
0.12000	0.05000	0.00208	0.00146
0.13000	0.05000	0.00097	0.00220
0.14000	0.05000	-0.00043	0.00295
0.15000	0.05000	-0.00214	0.00371
0.16000	0.05000	-0.00414	0.00447
0.17000	0.05000	-0.00646	0.00525
0.18000	0.05000	-0.00911	0.00605
0.19000	0.05000	-0.01208	0.00688
0.20000	0.05000	-0.01539	0.00774
0.21000	0.05000	-0.01905	0.00863
0.22000	0.05000	-0.02307	0.00956
0.23000	0.05000	-0.02745	0.01052
0.24000	0.05000	-0.03219	0.01151
0.25000	0.05000	-0.03729	0.01250
0.26000	0.05000	-0.04274	0.01350
0.27000	0.05000	-0.04852	0.01449
0.28000	0.05000	-0.05461	0.01545
0.29000	0.05000	-0.06099	0.01636
0.30000	0.05000	-0.06760	0.01720
0.31000	0.05000	-0.07442	0.01796
0.32000	0.05000	-0.08138	0.01861
0.33000	0.05000	-0.08845	0.01914
0.34000	0.05000	-0.09554	0.01953
0.35000	0.05000	-0.10262	0.01976
0.36000	0.05000	-0.10960	0.01982
0.37000	0.05000	-0.11642	0.01968
0.38000	0.05000	-0.12302	0.01936
0.39000	0.05000	-0.12932	0.01882
0.40000	0.05000	-0.13527	0.01808
0.41000	0.05000	-0.14080	0.01713
0.42000	0.05000	-0.14587	0.01597
0.43000	0.05000	-0.15040	0.01460
0.44000	0.05000	-0.15437	0.01305
0.45000	0.05000	-0.15772	0.01131
0.46000	0.05000	-0.16042	0.00940
0.47000	0.05000	-0.16245	0.00733
0.48000	0.05000	-0.16376	0.00513
0.49000	0.05000	-0.16436	0.00282
0.50000	0.05000	-0.16421	0.00041
0.51000	0.05000	-0.16332	-0.00207
0.52000	0.05000	-0.16169	-0.00459
0.53000	0.05000	-0.15930	-0.00712
0.54000	0.05000	-0.15619	-0.00964
0.55000	0.05000	-0.15235	-0.01212
0.56000	0.05000	-0.14782	-0.01452
0.57000	0.05000	-0.14262	-0.01681
0.58000	0.05000	-0.13678	-0.01897
0.59000	0.05000	-0.13035	-0.02096
0.60000	0.05000	-0.12336	-0.02275
0.61000	0.05000	-0.11589	-0.02431
0.62000	0.05000	-0.10797	-0.02561
0.63000	0.05000	-0.09969	-0.02664
0.64000	0.05000	-0.09111	-0.02736
0.65000	0.05000	-0.08231	-0.02777
0.66000	0.05000	-0.07338	-0.02786
0.67000	0.05000	-0.06439	-0.02761
0.68000	0.05000	-0.05544	-0.02704
0.69000	0.05000	-0.04662	-0.02615
0.70000	0.05000	-0.03801	-0.02496
0.71000	0.05000	-0.02970	-0.02349
0.72000	0.05000	-0.02178	-0.02177
0.73000	0.05000	-0.01432	-0.01984
0.74000	0.05000	-0.00738	-0.01774
0.75000	0.05000	-0.00104	-0.01550
0.76000	0.05000	0.00467	-0.01319
0.77000	0.05000	0.00969	-0.01084
0.78000	0.05000	0.01402	-0.00851
0.79000	0.05000	0.01763	-0.00623
0.80000	0.05000	0.02053	-0.00405
0.81000	0.05000	0.02273	-0.00200
0.82000	0.05000	0.02425	-0.00012
0.83000	0.05000	0.02513	0.00158
0.84000	0.05000	0.02542	0.00308
0.85000	0.05000	0.02517	0.00437
0.86000	0.05000	0.02444	0.00545
0.87000	0.05000	0.02328	0.00633
0.88000	0.05000	0.02177	0.00701
0.89000	0.05000	0.01996	0.00749
0.90000	0.05000	0.01793	0.00780
0.91000	0.05000	0.01574	0.00794
0.92000	0.05000	0.01345	0.00791
0.93000	0.05000	0.01113	0.00770
0.94000	0.05000	0.00884	0.00730
0.95000	0.05000	0.00664	0.00669
0.96000	0.05000	0.00462	0.00585
0.97000	0.05000	0.00284	0.00475
0.98000	0.05000	0.00140	0.00338
0.99000	0.05000	0.00040	0.00177
1.00000	0.05000	0.00000	0.00000
0.00000	0.06000	0.00000	0.00000
0.01000	0.06000	0.00022	-0.00154
0.02000	0.06000	0.00068	-0.00257
0.03000	0.06000	0.00127	-0.00315
0.04000	0.06000	0.00186	-0.00333
0.05000	0.06000	0.00238	-0.00318
0.06000	0.06000	0.00276	-0.00275
0.07000	0.06000	0.00295	-0.00212
0.08000	0.06000	0.00290	-0.00132
0.09000	0.06000	0.00258	-0.00042
0.10000	0.06000	0.00197	0.00056
0.11000	0.06000	0.00105	0.00158
0.12000	0.06000	-0.00020	0.00263
0.13000	0.06000	-0.00178	0.00369
0.14000	0.06000	-0.00371	0.00477
0.15000	0.06000	-0.00599	0.00585
0.16000	0.06000	-0.00863	0.00695
0.17000	0.06000	-0.01165	0.00808
0.18000	0.06000	-0.01506	0.00924
0.19000	0.06000	-0.01885	0.01043
0.20000	0.06000	-0.02306	0.01167
0.21000	0.06000	-0.02767	0.01295
0.22000	0.06000	-0.03270	0.01427
0.23000	0.06000	-0.03814	0.01562
0.24000	0.06000	-0.04399	0.01699
0.25000	0.06000	-0.05023	0.01836
0.26000	0.06000	-0.05684	0.01971
0.27000	0.06000	-0.06380	0.02103
0.28000	0.06000	-0.07107	0.02228
0.29000	0.06000	-0.07861	0.02345
0.30000	0.06000	-0.08637	0.02451
0.31000	0.06000	-0.09428	0.02543
0.32000	0.06000	-0.10229	0.02618
0.33000	0.06000	-0.11034	0.02675
0.34000	0.06000	-0.11834	0.02710
0.35000	0.06000	-0.12623	0.02723
0.36000	0.06000	-0.13394	0.02711
0.37000	0.06000	-0.14140	0.02674
0.38000	0.06000	-0.14854	0.02610
0.39000	0.06000	-0.15530	0.02520
0.40000	0.06000	-0.16161	0.02402
0.41000	0.06000	-0.16741	0.02258
0.42000	0.06000	-0.17267	0.02087
0.43000	0.06000	-0.17734	0.01892
0.44000	0.06000	-0.18136	0.01674
0.45000	0.06000	-0.18472	0.01433
0.46000	0.06000	-0.18739	0.01172
0.47000	0.06000	-0.18933	0.00894
0.48000	0.06000	-0.19053	0.00600
0.49000	0.06000	-0.19099	0.00294
0.50000	0.06000	-0.19068	-0.00023
0.51000	0.06000	-0.18960	-0.00347
0.52000	0.06000	-0.18776	-0.00675
0.53000	0.06000	-0.18516	-0.01003
0.54000	0.06000	-0.18181	-0.01329
0.55000	0.06000	-0.17772	-0.01649
0.56000	0.06000	-0.17290	-0.01959
0.57000	0.06000	-0.16739	-0.02255
0.58000	0.06000	-0.16122	-0.02534
0.59000	0.06000	-0.15441	-0.02792
0.60000	0.06000	-0.14701	-0.03025
0.61000	0.06000	-0.13907	-0.03230
0.62000	0.06000	-0.13064	-0.03403
0.63000	0.06000	-0.12179	-0.03541
0.64000	0.06000	-0.11258	-0.03642
0.65000	0.06000	-0.10310	-0.03704
0.66000	0.06000	-0.09341	-0.03725
0.67000	0.06000	-0.08361	-0.03704
0.68000	0.06000	-0.07379	-0.03641
0.69000	0.06000	-0.06403	-0.03537
0.70000	0.06000	-0.05443	-0.03394
0.71000	0.06000	-0.04509	-0.03215
0.72000	0.06000	-0.03609	-0.03002
0.73000	0.06000	-0.02752	-0.02760
0.74000	0.06000	-0.01946	-0.02494
0.75000	0.06000	-0.01199	-0.02209
0.76000	0.06000	-0.00515	-0.01911
0.77000	0.06000	0.00100	-0.01606
0.78000	0.06000	0.00642	-0.01300
0.79000	0.06000	0.01109	-0.00998
0.80000	0.06000	0.01499	-0.00706
0.81000	0.06000	0.01813	-0.00429
0.82000	0.06000	0.02053	-0.00171
0.83000	0.06000	0.02221	0.00065
0.84000	0.06000	0.02321	0.00276
0.85000	0.06000	0.02359	0.00461
0.86000	0.06000	0.02339	0.00619
0.87000	0.06000	0.02268	0.00750
0.88000	0.06000	0.02153	0.00854
0.89000	0.06000	0.02001	0.00933
0.90000	0.06000	0.01818	0.00987
0.91000	0.06000	0.01612	0.01017
0.92000	0.06000	0.01391	0.01022
0.93000	0.06000	0.01160	0.01004
0.94000	0.06000	0.00929	0.00960
0.95000	0.06000	0.00703	0.00887
0.96000	0.06000	0.00492	0.00782
0.97000	0.06000	0.00305	0.00643
0.98000	0.06000	0.00151	0.00466
0.99000	0.06000	0.00044	0.00251
1.00000	0.06000	0.00000	0.00000
0.00000	0.07000	0.00000	0.00000
0.01000	0.07000	0.00020	-0.00187
0.02000	0.07000	0.00060	-0.00307
0.03000	0.07000	0.00109	-0.00369
0.04000	0.07000	0.00154	-0.00382
0.05000	0.07000	0.00188	-0.00354
0.06000	0.07000	0.00203	-0.00293
0.07000	0.07000	0.00194	-0.00206
0.08000	0.07000	0.00158	-0.00099
0.09000	0.07000	0.00090	0.00022
0.10000	0.07000	-0.00010	0.00152
0.11000	0.07000	-0.00147	0.00288
0.12000	0.07000	-0.00320	0.00428
0.13000	0.07000	-0.00532	0.00571
0.14000	0.07000	-0.00784	0.00716
0.15000	0.07000	-0.01076	0.00863
0.16000	0.07000	-0.01411	0.01014
0.17000	0.07000	-0.01789	0.01167
0.18000	0.07000	-0.02212	0.01325
0.19000	0.07000	-0.02680	0.01488
0.20000	0.07000	-0.03193	0.01655
0.21000	0.07000	-0.03754	0.01827
0.22000	0.07000	-0.04360	0.02003
0.23000	0.07000	-0.05011	0.02181
0.24000	0.07000	-0.05706	0.02359
0.25000	0.07000	-0.06442	0.02536
0.26000	0.07000	-0.07216	0.02708
0.27000	0.07000	-0.08023	0.02872
0.28000	0.07000	-0.08859	0.03025
0.29000	0.07000	-0.09718	0.03165
0.30000	0.07000	-0.10594	0.03287
0.31000	0.07000	-0.11480	0.03389
0.32000	0.07000	-0.12368	0.03467
0.33000	0.07000	-0.13251	0.03519
0.34000	0.07000	-0.14122	0.03543
0.35000	0.07000	-0.14973	0.03537
0.36000	0.07000	-0.15797	0.03499
0.37000	0.07000	-0.16587	0.03428
0.38000	0.07000	-0.17336	0.03325
0.39000	0.07000	-0.18040	0.03189
0.40000	0.07000	-0.18692	0.03020
0.41000	0.07000	-0.19289	0.02819
0.42000	0.07000	-0.19825	0.02589
0.43000	0.07000	-0.20298	0.02329
0.44000	0.07000	-0.20703	0.02043
0.45000	0.07000	-0.21040	0.01733
0.46000	0.07000	-0.21305	0.01400
0.47000	0.07000	-0.21497	0.01048
0.48000	0.07000	-0.21614	0.00679
0.49000	0.07000	-0.21655	0.00296
0.50000	0.07000	-0.21621	-0.00097
0.51000	0.07000	-0.21509	-0.00498
0.52000	0.07000	-0.21321	-0.00903
0.53000	0.07000	-0.21056	-0.01308
0.54000	0.07000	-0.20715	-0.01709
0.55000	0.07000	-0.20299	-0.02102
0.56000	0.07000	-0.19809	-0.02484
0.57000	0.07000	-0.19247	-0.02850
0.58000	0.07000	-0.18615	-0.03196
0.59000	0.07000	-0.17916	-0.03517
0.60000	0.07000	-0.17153	-0.03809
0.61000	0.07000	-0.16332	-0.04067
0.62000	0.07000	-0.15456	-0.04289
0.63000	0.07000	-0.14530	-0.04469
0.64000	0.07000	-0.13563	-0.04605
0.65000	0.07000	-0.12560	-0.04695
0.66000	0.07000	-0.11529	-0.04734
0.67000	0.07000	-0.10480	-0.04724
0.68000	0.07000	-0.09420	-0.04662
0.69000	0.07000	-0.08360	-0.04551
0.70000	0.07000	-0.07309	-0.04390
0.71000	0.07000	-0.06277	-0.04183
0.72000	0.07000	-0.05274	-0.03934
0.73000	0.07000	-0.04310	-0.03647
0.74000	0.07000	-0.03393	-0.03327
0.75000	0.07000	-0.02531	-0.02982
0.76000	0.07000	-0.01732	-0.02617
0.77000	0.07000	-0.01003	-0.02241
0.78000	0.07000	-0.00347	-0.01859
0.79000	0.07000	0.00230	-0.01480
0.80000	0.07000	0.00728	-0.01110
0.81000	0.07000	0.01145	-0.00754
0.82000	0.07000	0.01482	-0.00420
0.83000	0.07000	0.01741	-0.00111
0.84000	0.07000	0.01924	0.00170
0.85000	0.07000	0.02037	0.00419
0.86000	0.07000	0.02084	0.00636
0.87000	0.07000	0.02072	0.00819
0.88000	0.07000	0.02007	0.00968
0.89000	0.07000	0.01897	0.01085
0.90000	0.07000	0.01748	0.01169
0.91000	0.07000	0.01569	0.01222
0.92000	0.07000	0.01367	0.01243
0.93000	0.07000	0.01151	0.01232
0.94000	0.07000	0.00929	0.01187
0.95000	0.07000	0.00708	0.01106
0.96000	0.07000	0.00499	0.00984
0.97000	0.07000	0.00310	0.00816
0.98000	0.07000	0.00154	0.00600
0.99000	0.07000	0.00045	0.00328
1.00000	0.07000	0.00000	0.00000
0.00000	0.08000	0.00000	0.00000
0.01000	0.08000	0.00016	-0.00215
0.02000	0.08000	0.00048	-0.00347
0.03000	0.08000	0.00082	-0.00409
0.04000	0.08000	0.00108	-0.00412
0.05000	0.08000	0.00117	-0.00366
0.06000	0.08000	0.00102	-0.00282
0.07000	0.08000	0.00060	-0.00167
0.08000	0.08000	-0.00014	-0.00029
0.09000	0.08000	-0.00123	0.00126
0.10000	0.08000	-0.00270	0.00293
0.11000	0.08000	-0.00457	0.00468
0.12000	0.08000	-0.00686	0.00648
0.13000	0.08000	-0.00958	0.00833
0.14000	0.08000	-0.01275	0.01021
0.15000	0.08000	-0.01638	0.01212
0.16000	0.08000	-0.02048	0.01408
0.17000	0.08000	-0.02508	0.01608
0.18000	0.08000	-0.03017	0.01814
0.19000	0.08000	-0.03576	0.02025
0.20000	0.08000	-0.04187	0.02241
0.21000	0.08000	-0.04847	0.02462
0.22000	0.08000	-0.05557	0.02685
0.23000	0.08000	-0.06314	0.02908
0.24000	0.08000	-0.07116	0.03130
0.25000	0.08000	-0.07958	0.03345
0.26000	0.08000	-0.08837	0.03552
0.27000	0.08000	-0.09746	0.03746
0.28000	0.08000	-0.10679	0.03924
0.29000	0.08000	-0.11629	0.04080
0.30000	0.08000	-0.12590	0.04212
0.31000	0.08000	-0.13553	0.04316
0.32000	0.08000	-0.14510	0.04389
0.33000	0.08000	-0.15454	0.04429
0.34000	0.08000	-0.16377	0.04432
0.35000	0.08000	-0.17271	0.04398
0.36000	0.08000	-0.18131	0.04325
0.37000	0.08000	-0.18950	0.04214
0.38000	0.08000	-0.19722	0.04064
0.39000	0.08000	-0.20443	0.03876
0.40000	0.08000	-0.21109	0.03651
0.41000	0.08000	-0.21714	0.03390
0.42000	0.08000	-0.22258	0.03096
0.43000	0.08000	-0.22736	0.02771
0.44000	0.08000	-0.23146	0.02416
0.45000	0.08000	-0.23487	0.02034
0.46000	0.08000	-0.23757	0.01629
0.47000	0.08000	-0.23954	0.01203
0.48000	0.08000	-0.24077	0.00759
0.49000	0.08000	-0.24126	0.00301
0.50000	0.08000	-0.24100	-0.00169
0.51000	0.08000	-0.23998	-0.00646
0.52000	0.08000	-0.23819	-0.01128
0.53000	0.08000	-0.23564	-0.01609
0.54000	0.08000	-0.23233	-0.02086
0.55000	0.08000	-0.22825	-0.02555
0.56000	0.08000	-0.22342	-0.03011
0.57000	0.08000	-0.21784	-0.03449
0.58000	0.08000	-0.21154	-0.03865
0.59000	0.08000	-0.20452	-0.04253
0.60000	0.08000	-0.19683	-0.04609
0.61000	0.08000	-0.18848	-0.04928
0.62000	0.08000	-0.17953	-0.05204
0.63000	0.08000	-0.17002	-0.05434
0.64000	0.08000	-0.16000	-0.05613
0.65000	0.08000	-0.14955	-0.05737
0.66000	0.08000	-0.13873	-0.05805
0.67000	0.08000	-0.12764	-0.05813
0.68000	0.08000	-0.11635	-0.05761
0.69000	0.08000	-0.10497	-0.05648
0.70000	0.08000	-0.09361	-0.05477
0.71000	0.08000	-0.08235	-0.05250
0.72000	0.08000	-0.07132	-0.04970
0.73000	0.08000	-0.06061	-0.04642
0.74000	0.08000	-0.05033	-0.04273