VARIABLES="X","Y","V"
ZONE  F=POINT
I=101, J=101
0.00000	0.00000	0.00000
0.01000	0.00000	0.00000
0.02000	0.00000	0.00000
0.03000	0.00000	0.00000
0.04000	0.00000	0.00000
0.05000	0.00000	0.00000
0.06000	0.00000	0.00000
0.07000	0.00000	0.00000
0.08000	0.00000	0.00000
0.09000	0.00000	0.00000
0.10000	0.00000	0.00000
0.11000	0.00000	0.00000
0.12000	0.00000	0.00000
0.13000	0.00000	0.00000
0.14000	0.00000	0.00000
0.15000	0.00000	0.00000
0.16000	0.00000	0.00000
0.17000	0.00000	0.00000
0.18000	0.00000	0.00000
0.19000	0.00000	0.00000
0.20000	0.00000	0.00000
0.21000	0.00000	0.00000
0.22000	0.00000	0.00000
0.23000	0.00000	0.00000
0.24000	0.00000	0.00000
0.25000	0.00000	0.00000
0.26000	0.00000	0.00000
0.27000	0.00000	0.00000
0.28000	0.00000	0.00000
0.29000	0.00000	0.00000
0.30000	0.00000	0.00000
0.31000	0.00000	0.00000
0.32000	0.00000	0.00000
0.33000	0.00000	0.00000
0.34000	0.00000	0.00000
0.35000	0.00000	0.00000
0.36000	0.00000	0.00000
0.37000	0.00000	0.00000
0.38000	0.00000	0.00000
0.39000	0.00000	0.00000
0.40000	0.00000	0.00000
0.41000	0.00000	0.00000
0.42000	0.00000	0.00000
0.43000	0.00000	0.00000
0.44000	0.00000	0.00000
0.45000	0.00000	0.00000
0.46000	0.00000	0.00000
0.47000	0.00000	0.00000
0.48000	0.00000	0.00000
0.49000	0.00000	0.00000
0.50000	0.00000	0.00000
0.51000	0.00000	0.00000
0.52000	0.00000	0.00000
0.53000	0.00000	0.00000
0.54000	0.00000	0.00000
0.55000	0.00000	0.00000
0.56000	0.00000	0.00000
0.57000	0.00000	0.00000
0.58000	0.00000	0.00000
0.59000	0.00000	0.00000
0.60000	0.00000	0.00000
0.61000	0.00000	0.00000
0.62000	0.00000	0.00000
0.63000	0.00000	0.00000
0.64000	0.00000	0.00000
0.65000	0.00000	0.00000
0.66000	0.00000	0.00000
0.67000	0.00000	0.00000
0.68000	0.00000	0.00000
0.69000	0.00000	0.00000
0.70000	0.00000	0.00000
0.71000	0.00000	0.00000
0.72000	0.00000	0.00000
0.73000	0.00000	0.00000
0.74000	0.00000	0.00000
0.75000	0.00000	0.00000
0.76000	0.00000	0.00000
0.77000	0.00000	0.00000
0.78000	0.00000	0.00000
0.79000	0.00000	0.00000
0.80000	0.00000	0.00000
0.81000	0.00000	0.00000
0.82000	0.00000	0.00000
0.83000	0.00000	0.00000
0.84000	0.00000	0.00000
0.85000	0.00000	0.00000
0.86000	0.00000	0.00000
0.87000	0.00000	0.00000
0.88000	0.00000	0.00000
0.89000	0.00000	0.00000
0.90000	0.00000	0.00000
0.91000	0.00000	0.00000
0.92000	0.00000	0.00000
0.93000	0.00000	0.00000
0.94000	0.00000	0.00000
0.95000	0.00000	0.00000
0.96000	0.00000	0.00000
0.97000	0.00000	0.00000
0.98000	0.00000	0.00000
0.99000	0.00000	0.00000
1.00000	0.00000	0.00000
0.00000	0.01000	0.00000
0.01000	0.01000	-0.00005
0.02000	0.01000	-0.00012
0.03000	0.01000	-0.00018
0.04000	0.01000	-0.00021
0.05000	0.01000	-0.00021
0.06000	0.01000	-0.00020
0.07000	0.01000	-0.00018
0.08000	0.01000	-0.00015
0.09000	0.01000	-0.00012
0.10000	0.01000	-0.00008
0.11000	0.01000	-0.00005
0.12000	0.01000	-0.00001
0.13000	0.01000	0.00002
0.14000	0.01000	0.00005
0.15000	0.01000	0.00008
0.16000	0.01000	0.00011
0.17000	0.01000	0.00014
0.18000	0.01000	0.00017
0.19000	0.01000	0.00020
0.20000	0.01000	0.00023
0.21000	0.01000	0.00027
0.22000	0.01000	0.00030
0.23000	0.01000	0.00034
0.24000	0.01000	0.00039
0.25000	0.01000	0.00043
0.26000	0.01000	0.00048
0.27000	0.01000	0.00053
0.28000	0.01000	0.00058
0.29000	0.01000	0.00064
0.30000	0.01000	0.00069
0.31000	0.01000	0.00074
0.32000	0.01000	0.00080
0.33000	0.01000	0.00084
0.34000	0.01000	0.00089
0.35000	0.01000	0.00093
0.36000	0.01000	0.00096
0.37000	0.01000	0.00099
0.38000	0.01000	0.00101
0.39000	0.01000	0.00102
0.40000	0.01000	0.00102
0.41000	0.01000	0.00100
0.42000	0.01000	0.00098
0.43000	0.01000	0.00094
0.44000	0.01000	0.00088
0.45000	0.01000	0.00081
0.46000	0.01000	0.00073
0.47000	0.01000	0.00063
0.48000	0.01000	0.00052
0.49000	0.01000	0.00040
0.50000	0.01000	0.00026
0.51000	0.01000	0.00012
0.52000	0.01000	-0.00004
0.53000	0.01000	-0.00020
0.54000	0.01000	-0.00037
0.55000	0.01000	-0.00054
0.56000	0.01000	-0.00071
0.57000	0.01000	-0.00087
0.58000	0.01000	-0.00103
0.59000	0.01000	-0.00117
0.60000	0.01000	-0.00131
0.61000	0.01000	-0.00142
0.62000	0.01000	-0.00151
0.63000	0.01000	-0.00159
0.64000	0.01000	-0.00163
0.65000	0.01000	-0.00166
0.66000	0.01000	-0.00165
0.67000	0.01000	-0.00162
0.68000	0.01000	-0.00156
0.69000	0.01000	-0.00148
0.70000	0.01000	-0.00138
0.71000	0.01000	-0.00126
0.72000	0.01000	-0.00112
0.73000	0.01000	-0.00097
0.74000	0.01000	-0.00082
0.75000	0.01000	-0.00066
0.76000	0.01000	-0.00050
0.77000	0.01000	-0.00035
0.78000	0.01000	-0.00020
0.79000	0.01000	-0.00007
0.80000	0.01000	0.00006
0.81000	0.01000	0.00016
0.82000	0.01000	0.00026
0.83000	0.01000	0.00033
0.84000	0.01000	0.00040
0.85000	0.01000	0.00044
0.86000	0.01000	0.00048
0.87000	0.01000	0.00050
0.88000	0.01000	0.00051
0.89000	0.01000	0.00052
0.90000	0.01000	0.00051
0.91000	0.01000	0.00050
0.92000	0.01000	0.00049
0.93000	0.01000	0.00046
0.94000	0.01000	0.00043
0.95000	0.01000	0.00038
0.96000	0.01000	0.00032
0.97000	0.01000	0.00023
0.98000	0.01000	0.00013
0.99000	0.01000	0.00002
1.00000	0.01000	0.00000
0.00000	0.02000	0.00000
0.01000	0.02000	-0.00022
0.02000	0.02000	-0.00044
0.03000	0.02000	-0.00060
0.04000	0.02000	-0.00068
0.05000	0.02000	-0.00069
0.06000	0.02000	-0.00065
0.07000	0.02000	-0.00058
0.08000	0.02000	-0.00047
0.09000	0.02000	-0.00035
0.10000	0.02000	-0.00022
0.11000	0.02000	-0.00009
0.12000	0.02000	0.00004
0.13000	0.02000	0.00017
0.14000	0.02000	0.00029
0.15000	0.02000	0.00041
0.16000	0.02000	0.00053
0.17000	0.02000	0.00065
0.18000	0.02000	0.00077
0.19000	0.02000	0.00089
0.20000	0.02000	0.00103
0.21000	0.02000	0.00117
0.22000	0.02000	0.00132
0.23000	0.02000	0.00148
0.24000	0.02000	0.00165
0.25000	0.02000	0.00183
0.26000	0.02000	0.00201
0.27000	0.02000	0.00220
0.28000	0.02000	0.00239
0.29000	0.02000	0.00259
0.30000	0.02000	0.00278
0.31000	0.02000	0.00296
0.32000	0.02000	0.00313
0.33000	0.02000	0.00329
0.34000	0.02000	0.00343
0.35000	0.02000	0.00355
0.36000	0.02000	0.00365
0.37000	0.02000	0.00371
0.38000	0.02000	0.00374
0.39000	0.02000	0.00373
0.40000	0.02000	0.00368
0.41000	0.02000	0.00359
0.42000	0.02000	0.00345
0.43000	0.02000	0.00326
0.44000	0.02000	0.00303
0.45000	0.02000	0.00274
0.46000	0.02000	0.00241
0.47000	0.02000	0.00203
0.48000	0.02000	0.00161
0.49000	0.02000	0.00115
0.50000	0.02000	0.00065
0.51000	0.02000	0.00012
0.52000	0.02000	-0.00043
0.53000	0.02000	-0.00099
0.54000	0.02000	-0.00157
0.55000	0.02000	-0.00214
0.56000	0.02000	-0.00271
0.57000	0.02000	-0.00326
0.58000	0.02000	-0.00377
0.59000	0.02000	-0.00425
0.60000	0.02000	-0.00468
0.61000	0.02000	-0.00506
0.62000	0.02000	-0.00536
0.63000	0.02000	-0.00560
0.64000	0.02000	-0.00576
0.65000	0.02000	-0.00583
0.66000	0.02000	-0.00582
0.67000	0.02000	-0.00572
0.68000	0.02000	-0.00554
0.69000	0.02000	-0.00529
0.70000	0.02000	-0.00496
0.71000	0.02000	-0.00457
0.72000	0.02000	-0.00412
0.73000	0.02000	-0.00364
0.74000	0.02000	-0.00312
0.75000	0.02000	-0.00259
0.76000	0.02000	-0.00205
0.77000	0.02000	-0.00152
0.78000	0.02000	-0.00101
0.79000	0.02000	-0.00053
0.80000	0.02000	-0.00009
0.81000	0.02000	0.00031
0.82000	0.02000	0.00066
0.83000	0.02000	0.00095
0.84000	0.02000	0.00120
0.85000	0.02000	0.00140
0.86000	0.02000	0.00156
0.87000	0.02000	0.00167
0.88000	0.02000	0.00174
0.89000	0.02000	0.00178
0.90000	0.02000	0.00179
0.91000	0.02000	0.00177
0.92000	0.02000	0.00172
0.93000	0.02000	0.00164
0.94000	0.02000	0.00153
0.95000	0.02000	0.00137
0.96000	0.02000	0.00116
0.97000	0.02000	0.00088
0.98000	0.02000	0.00055
0.99000	0.02000	0.00021
1.00000	0.02000	0.00000
0.00000	0.03000	0.00000
0.01000	0.03000	-0.00049
0.02000	0.03000	-0.00090
0.03000	0.03000	-0.00117
0.04000	0.03000	-0.00131
0.05000	0.03000	-0.00132
0.06000	0.03000	-0.00123
0.07000	0.03000	-0.00106
0.08000	0.03000	-0.00085
0.09000	0.03000	-0.00059
0.10000	0.03000	-0.00032
0.11000	0.03000	-0.00004
0.12000	0.03000	0.00024
0.13000	0.03000	0.00052
0.14000	0.03000	0.00080
0.15000	0.03000	0.00107
0.16000	0.03000	0.00134
0.17000	0.03000	0.00161
0.18000	0.03000	0.00189
0.19000	0.03000	0.00218
0.20000	0.03000	0.00249
0.21000	0.03000	0.00281
0.22000	0.03000	0.00315
0.23000	0.03000	0.00350
0.24000	0.03000	0.00388
0.25000	0.03000	0.00426
0.26000	0.03000	0.00466
0.27000	0.03000	0.00506
0.28000	0.03000	0.00547
0.29000	0.03000	0.00586
0.30000	0.03000	0.00625
0.31000	0.03000	0.00661
0.32000	0.03000	0.00695
0.33000	0.03000	0.00725
0.34000	0.03000	0.00750
0.35000	0.03000	0.00770
0.36000	0.03000	0.00784
0.37000	0.03000	0.00791
0.38000	0.03000	0.00790
0.39000	0.03000	0.00782
0.40000	0.03000	0.00764
0.41000	0.03000	0.00737
0.42000	0.03000	0.00701
0.43000	0.03000	0.00655
0.44000	0.03000	0.00599
0.45000	0.03000	0.00535
0.46000	0.03000	0.00461
0.47000	0.03000	0.00378
0.48000	0.03000	0.00288
0.49000	0.03000	0.00191
0.50000	0.03000	0.00088
0.51000	0.03000	-0.00020
0.52000	0.03000	-0.00131
0.53000	0.03000	-0.00245
0.54000	0.03000	-0.00359
0.55000	0.03000	-0.00473
0.56000	0.03000	-0.00583
0.57000	0.03000	-0.00690
0.58000	0.03000	-0.00790
0.59000	0.03000	-0.00882
0.60000	0.03000	-0.00965
0.61000	0.03000	-0.01037
0.62000	0.03000	-0.01096
0.63000	0.03000	-0.01142
0.64000	0.03000	-0.01172
0.65000	0.03000	-0.01187
0.66000	0.03000	-0.01187
0.67000	0.03000	-0.01170
0.68000	0.03000	-0.01138
0.69000	0.03000	-0.01090
0.70000	0.03000	-0.01029
0.71000	0.03000	-0.00955
0.72000	0.03000	-0.00870
0.73000	0.03000	-0.00777
0.74000	0.03000	-0.00677
0.75000	0.03000	-0.00573
0.76000	0.03000	-0.00467
0.77000	0.03000	-0.00362
0.78000	0.03000	-0.00259
0.79000	0.03000	-0.00161
0.80000	0.03000	-0.00070
0.81000	0.03000	0.00014
0.82000	0.03000	0.00089
0.83000	0.03000	0.00154
0.84000	0.03000	0.00210
0.85000	0.03000	0.00256
0.86000	0.03000	0.00292
0.87000	0.03000	0.00320
0.88000	0.03000	0.00340
0.89000	0.03000	0.00352
0.90000	0.03000	0.00357
0.91000	0.03000	0.00356
0.92000	0.03000	0.00349
0.93000	0.03000	0.00335
0.94000	0.03000	0.00314
0.95000	0.03000	0.00283
0.96000	0.03000	0.00242
0.97000	0.03000	0.00190
0.98000	0.03000	0.00126
0.99000	0.03000	0.00058
1.00000	0.03000	0.00000
0.00000	0.04000	0.00000
0.01000	0.04000	-0.00082
0.02000	0.04000	-0.00144
0.03000	0.04000	-0.00183
0.04000	0.04000	-0.00201
0.05000	0.04000	-0.00200
0.06000	0.04000	-0.00183
0.07000	0.04000	-0.00154
0.08000	0.04000	-0.00117
0.09000	0.04000	-0.00074
0.10000	0.04000	-0.00028
0.11000	0.04000	0.00020
0.12000	0.04000	0.00069
0.13000	0.04000	0.00117
0.14000	0.04000	0.00166
0.15000	0.04000	0.00214
0.16000	0.04000	0.00262
0.17000	0.04000	0.00312
0.18000	0.04000	0.00362
0.19000	0.04000	0.00415
0.20000	0.04000	0.00470
0.21000	0.04000	0.00527
0.22000	0.04000	0.00587
0.23000	0.04000	0.00650
0.24000	0.04000	0.00714
0.25000	0.04000	0.00781
0.26000	0.04000	0.00848
0.27000	0.04000	0.00916
0.28000	0.04000	0.00982
0.29000	0.04000	0.01047
0.30000	0.04000	0.01108
0.31000	0.04000	0.01164
0.32000	0.04000	0.01215
0.33000	0.04000	0.01258
0.34000	0.04000	0.01293
0.35000	0.04000	0.01318
0.36000	0.04000	0.01331
0.37000	0.04000	0.01332
0.38000	0.04000	0.01320
0.39000	0.04000	0.01294
0.40000	0.04000	0.01254
0.41000	0.04000	0.01198
0.42000	0.04000	0.01128
0.43000	0.04000	0.01042
0.44000	0.04000	0.00942
0.45000	0.04000	0.00827
0.46000	0.04000	0.00700
0.47000	0.04000	0.00560
0.48000	0.04000	0.00409
0.49000	0.04000	0.00249
0.50000	0.04000	0.00080
0.51000	0.04000	-0.00094
0.52000	0.04000	-0.00273
0.53000	0.04000	-0.00453
0.54000	0.04000	-0.00634
0.55000	0.04000	-0.00812
0.56000	0.04000	-0.00985
0.57000	0.04000	-0.01151
0.58000	0.04000	-0.01307
0.59000	0.04000	-0.01450
0.60000	0.04000	-0.01579
0.61000	0.04000	-0.01691
0.62000	0.04000	-0.01783
0.63000	0.04000	-0.01855
0.64000	0.04000	-0.01904
0.65000	0.04000	-0.01931
0.66000	0.04000	-0.01932
0.67000	0.04000	-0.01910
0.68000	0.04000	-0.01864
0.69000	0.04000	-0.01794
0.70000	0.04000	-0.01703
0.71000	0.04000	-0.01592
0.72000	0.04000	-0.01464
0.73000	0.04000	-0.01321
0.74000	0.04000	-0.01167
0.75000	0.04000	-0.01004
0.76000	0.04000	-0.00838
0.77000	0.04000	-0.00671
0.78000	0.04000	-0.00506
0.79000	0.04000	-0.00347
0.80000	0.04000	-0.00197
0.81000	0.04000	-0.00057
0.82000	0.04000	0.00070
0.83000	0.04000	0.00182
0.84000	0.04000	0.00280
0.85000	0.04000	0.00362
0.86000	0.04000	0.00430
0.87000	0.04000	0.00483
0.88000	0.04000	0.00523
0.89000	0.04000	0.00550
0.90000	0.04000	0.00565
0.91000	0.04000	0.00568
0.92000	0.04000	0.00561
0.93000	0.04000	0.00542
0.94000	0.04000	0.00511
0.95000	0.04000	0.00465
0.96000	0.04000	0.00402
0.97000	0.04000	0.00321
0.98000	0.04000	0.00223
0.99000	0.04000	0.00112
1.00000	0.04000	0.00000
0.00000	0.05000	0.00000
0.01000	0.05000	-0.00118
0.02000	0.05000	-0.00202
0.03000	0.05000	-0.00251
0.04000	0.05000	-0.00271
0.05000	0.05000	-0.00264
0.06000	0.05000	-0.00236
0.07000	0.05000	-0.00192
0.08000	0.05000	-0.00136
0.09000	0.05000	-0.00071
0.10000	0.05000	-0.00002
0.11000	0.05000	0.00071
0.12000	0.05000	0.00146
0.13000	0.05000	0.00220
0.14000	0.05000	0.00295
0.15000	0.05000	0.00371
0.16000	0.05000	0.00447
0.17000	0.05000	0.00525
0.18000	0.05000	0.00605
0.19000	0.05000	0.00688
0.20000	0.05000	0.00774
0.21000	0.05000	0.00863
0.22000	0.05000	0.00956
0.23000	0.05000	0.01052
0.24000	0.05000	0.01151
0.25000	0.05000	0.01250
0.26000	0.05000	0.01350
0.27000	0.05000	0.01449
0.28000	0.05000	0.01545
0.29000	0.05000	0.01636
0.30000	0.05000	0.01720
0.31000	0.05000	0.01796
0.32000	0.05000	0.01861
0.33000	0.05000	0.01914
0.34000	0.05000	0.01953
0.35000	0.05000	0.01976
0.36000	0.05000	0.01982
0.37000	0.05000	0.01968
0.38000	0.05000	0.01936
0.39000	0.05000	0.01882
0.40000	0.05000	0.01808
0.41000	0.05000	0.01713
0.42000	0.05000	0.01597
0.43000	0.05000	0.01460
0.44000	0.05000	0.01305
0.45000	0.05000	0.01131
0.46000	0.05000	0.00940
0.47000	0.05000	0.00733
0.48000	0.05000	0.00513
0.49000	0.05000	0.00282
0.50000	0.05000	0.00041
0.51000	0.05000	-0.00207
0.52000	0.05000	-0.00459
0.53000	0.05000	-0.00712
0.54000	0.05000	-0.00964
0.55000	0.05000	-0.01212
0.56000	0.05000	-0.01452
0.57000	0.05000	-0.01681
0.58000	0.05000	-0.01897
0.59000	0.05000	-0.02096
0.60000	0.05000	-0.02275
0.61000	0.05000	-0.02431
0.62000	0.05000	-0.02561
0.63000	0.05000	-0.02664
0.64000	0.05000	-0.02736
0.65000	0.05000	-0.02777
0.66000	0.05000	-0.02786
0.67000	0.05000	-0.02761
0.68000	0.05000	-0.02704
0.69000	0.05000	-0.02615
0.70000	0.05000	-0.02496
0.71000	0.05000	-0.02349
0.72000	0.05000	-0.02177
0.73000	0.05000	-0.01984
0.74000	0.05000	-0.01774
0.75000	0.05000	-0.01550
0.76000	0.05000	-0.01319
0.77000	0.05000	-0.01084
0.78000	0.05000	-0.00851
0.79000	0.05000	-0.00623
0.80000	0.05000	-0.00405
0.81000	0.05000	-0.00200
0.82000	0.05000	-0.00012
0.83000	0.05000	0.00158
0.84000	0.05000	0.00308
0.85000	0.05000	0.00437
0.86000	0.05000	0.00545
0.87000	0.05000	0.00633
0.88000	0.05000	0.00701
0.89000	0.05000	0.00749
0.90000	0.05000	0.00780
0.91000	0.05000	0.00794
0.92000	0.05000	0.00791
0.93000	0.05000	0.00770
0.94000	0.05000	0.00730
0.95000	0.05000	0.00669
0.96000	0.05000	0.00585
0.97000	0.05000	0.00475
0.98000	0.05000	0.00338
0.99000	0.05000	0.00177
1.00000	0.05000	0.00000
0.00000	0.06000	0.00000
0.01000	0.06000	-0.00154
0.02000	0.06000	-0.00257
0.03000	0.06000	-0.00315
0.04000	0.06000	-0.00333
0.05000	0.06000	-0.00318
0.06000	0.06000	-0.00275
0.07000	0.06000	-0.00212
0.08000	0.06000	-0.00132
0.09000	0.06000	-0.00042
0.10000	0.06000	0.00056
0.11000	0.06000	0.00158
0.12000	0.06000	0.00263
0.13000	0.06000	0.00369
0.14000	0.06000	0.00477
0.15000	0.06000	0.00585
0.16000	0.06000	0.00695
0.17000	0.06000	0.00808
0.18000	0.06000	0.00924
0.19000	0.06000	0.01043
0.20000	0.06000	0.01167
0.21000	0.06000	0.01295
0.22000	0.06000	0.01427
0.23000	0.06000	0.01562
0.24000	0.06000	0.01699
0.25000	0.06000	0.01836
0.26000	0.06000	0.01971
0.27000	0.06000	0.02103
0.28000	0.06000	0.02228
0.29000	0.06000	0.02345
0.30000	0.06000	0.02451
0.31000	0.06000	0.02543
0.32000	0.06000	0.02618
0.33000	0.06000	0.02675
0.34000	0.06000	0.02710
0.35000	0.06000	0.02723
0.36000	0.06000	0.02711
0.37000	0.06000	0.02674
0.38000	0.06000	0.02610
0.39000	0.06000	0.02520
0.40000	0.06000	0.02402
0.41000	0.06000	0.02258
0.42000	0.06000	0.02087
0.43000	0.06000	0.01892
0.44000	0.06000	0.01674
0.45000	0.06000	0.01433
0.46000	0.06000	0.01172
0.47000	0.06000	0.00894
0.48000	0.06000	0.00600
0.49000	0.06000	0.00294
0.50000	0.06000	-0.00023
0.51000	0.06000	-0.00347
0.52000	0.06000	-0.00675
0.53000	0.06000	-0.01003
0.54000	0.06000	-0.01329
0.55000	0.06000	-0.01649
0.56000	0.06000	-0.01959
0.57000	0.06000	-0.02255
0.58000	0.06000	-0.02534
0.59000	0.06000	-0.02792
0.60000	0.06000	-0.03025
0.61000	0.06000	-0.03230
0.62000	0.06000	-0.03403
0.63000	0.06000	-0.03541
0.64000	0.06000	-0.03642
0.65000	0.06000	-0.03704
0.66000	0.06000	-0.03725
0.67000	0.06000	-0.03704
0.68000	0.06000	-0.03641
0.69000	0.06000	-0.03537
0.70000	0.06000	-0.03394
0.71000	0.06000	-0.03215
0.72000	0.06000	-0.03002
0.73000	0.06000	-0.02760
0.74000	0.06000	-0.02494
0.75000	0.06000	-0.02209
0.76000	0.06000	-0.01911
0.77000	0.06000	-0.01606
0.78000	0.06000	-0.01300
0.79000	0.06000	-0.00998
0.80000	0.06000	-0.00706
0.81000	0.06000	-0.00429
0.82000	0.06000	-0.00171
0.83000	0.06000	0.00065
0.84000	0.06000	0.00276
0.85000	0.06000	0.00461
0.86000	0.06000	0.00619
0.87000	0.06000	0.00750
0.88000	0.06000	0.00854
0.89000	0.06000	0.00933
0.90000	0.06000	0.00987
0.91000	0.06000	0.01017
0.92000	0.06000	0.01022
0.93000	0.06000	0.01004
0.94000	0.06000	0.00960
0.95000	0.06000	0.00887
0.96000	0.06000	0.00782
0.97000	0.06000	0.00643
0.98000	0.06000	0.00466
0.99000	0.06000	0.00251
1.00000	0.06000	0.00000
0.00000	0.07000	0.00000
0.01000	0.07000	-0.00187
0.02000	0.07000	-0.00307
0.03000	0.07000	-0.00369
0.04000	0.07000	-0.00382
0.05000	0.07000	-0.00354
0.06000	0.07000	-0.00293
0.07000	0.07000	-0.00206
0.08000	0.07000	-0.00099
0.09000	0.07000	0.00022
0.10000	0.07000	0.00152
0.11000	0.07000	0.00288
0.12000	0.07000	0.00428
0.13000	0.07000	0.00571
0.14000	0.07000	0.00716
0.15000	0.07000	0.00863
0.16000	0.07000	0.01014
0.17000	0.07000	0.01167
0.18000	0.07000	0.01325
0.19000	0.07000	0.01488
0.20000	0.07000	0.01655
0.21000	0.07000	0.01827
0.22000	0.07000	0.02003
0.23000	0.07000	0.02181
0.24000	0.07000	0.02359
0.25000	0.07000	0.02536
0.26000	0.07000	0.02708
0.27000	0.07000	0.02872
0.28000	0.07000	0.03025
0.29000	0.07000	0.03165
0.30000	0.07000	0.03287
0.31000	0.07000	0.03389
0.32000	0.07000	0.03467
0.33000	0.07000	0.03519
0.34000	0.07000	0.03543
0.35000	0.07000	0.03537
0.36000	0.07000	0.03499
0.37000	0.07000	0.03428
0.38000	0.07000	0.03325
0.39000	0.07000	0.03189
0.40000	0.07000	0.03020
0.41000	0.07000	0.02819
0.42000	0.07000	0.02589
0.43000	0.07000	0.02329
0.44000	0.07000	0.02043
0.45000	0.07000	0.01733
0.46000	0.07000	0.01400
0.47000	0.07000	0.01048
0.48000	0.07000	0.00679
0.49000	0.07000	0.00296
0.50000	0.07000	-0.00097
0.51000	0.07000	-0.00498
0.52000	0.07000	-0.00903
0.53000	0.07000	-0.01308
0.54000	0.07000	-0.01709
0.55000	0.07000	-0.02102
0.56000	0.07000	-0.02484
0.57000	0.07000	-0.02850
0.58000	0.07000	-0.03196
0.59000	0.07000	-0.03517
0.60000	0.07000	-0.03809
0.61000	0.07000	-0.04067
0.62000	0.07000	-0.04289
0.63000	0.07000	-0.04469
0.64000	0.07000	-0.04605
0.65000	0.07000	-0.04695
0.66000	0.07000	-0.04734
0.67000	0.07000	-0.04724
0.68000	0.07000	-0.04662
0.69000	0.07000	-0.04551
0.70000	0.07000	-0.04390
0.71000	0.07000	-0.04183
0.72000	0.07000	-0.03934
0.73000	0.07000	-0.03647
0.74000	0.07000	-0.03327
0.75000	0.07000	-0.02982
0.76000	0.07000	-0.02617
0.77000	0.07000	-0.02241
0.78000	0.07000	-0.01859
0.79000	0.07000	-0.01480
0.80000	0.07000	-0.01110
0.81000	0.07000	-0.00754
0.82000	0.07000	-0.00420
0.83000	0.07000	-0.00111
0.84000	0.07000	0.00170
0.85000	0.07000	0.00419
0.86000	0.07000	0.00636
0.87000	0.07000	0.00819
0.88000	0.07000	0.00968
0.89000	0.07000	0.01085
0.90000	0.07000	0.01169
0.91000	0.07000	0.01222
0.92000	0.07000	0.01243
0.93000	0.07000	0.01232
0.94000	0.07000	0.01187
0.95000	0.07000	0.01106
0.96000	0.07000	0.00984
0.97000	0.07000	0.00816
0.98000	0.07000	0.00600
0.99000	0.07000	0.00328
1.00000	0.07000	0.00000
0.00000	0.08000	0.00000
0.01000	0.08000	-0.00215
0.02000	0.08000	-0.00347
0.03000	0.08000	-0.00409
0.04000	0.08000	-0.00412
0.05000	0.08000	-0.00366
0.06000	0.08000	-0.00282
0.07000	0.08000	-0.00167
0.08000	0.08000	-0.00029
0.09000	0.08000	0.00126
0.10000	0.08000	0.00293
0.11000	0.08000	0.00468
0.12000	0.08000	0.00648
0.13000	0.08000	0.00833
0.14000	0.08000	0.01021
0.15000	0.08000	0.01212
0.16000	0.08000	0.01408
0.17000	0.08000	0.01608
0.18000	0.08000	0.01814
0.19000	0.08000	0.02025
0.20000	0.08000	0.02241
0.21000	0.08000	0.02462
0.22000	0.08000	0.02685
0.23000	0.08000	0.02908
0.24000	0.08000	0.03130
0.25000	0.08000	0.03345
0.26000	0.08000	0.03552
0.27000	0.08000	0.03746
0.28000	0.08000	0.03924
0.29000	0.08000	0.04080
0.30000	0.08000	0.04212
0.31000	0.08000	0.04316
0.32000	0.08000	0.04389
0.33000	0.08000	0.04429
0.34000	0.08000	0.04432
0.35000	0.08000	0.04398
0.36000	0.08000	0.04325
0.37000	0.08000	0.04214
0.38000	0.08000	0.04064
0.39000	0.08000	0.03876
0.40000	0.08000	0.03651
0.41000	0.08000	0.03390
0.42000	0.08000	0.03096
0.43000	0.08000	0.02771
0.44000	0.08000	0.02416
0.45000	0.08000	0.02034
0.46000	0.08000	0.01629
0.47000	0.08000	0.01203
0.48000	0.08000	0.00759
0.49000	0.08000	0.00301
0.50000	0.08000	-0.00169
0.51000	0.08000	-0.00646
0.52000	0.08000	-0.01128
0.53000	0.08000	-0.01609
0.54000	0.08000	-0.02086
0.55000	0.08000	-0.02555
0.56000	0.08000	-0.03011
0.57000	0.08000	-0.03449
0.58000	0.08000	-0.03865
0.59000	0.08000	-0.04253
0.60000	0.08000	-0.04609
0.61000	0.08000	-0.04928
0.62000	0.08000	-0.05204
0.63000	0.08000	-0.05434
0.64000	0.08000	-0.05613
0.65000	0.08000	-0.05737
0.66000	0.08000	-0.05805
0.67000	0.08000	-0.05813
0.68000	0.08000	-0.05761
0.69000	0.08000	-0.05648
0.70000	0.08000	-0.05477
0.71000	0.08000	-0.05250
0.72000	0.08000	-0.04970
0.73000	0.08000	-0.04642
0.74000	0.08000	-0.04273
0.75000	0.08000	-0.03870
0.76000	0.08000	-0.03439
0.77000	0.08000	-0.02991
0.78000	0.08000	-0.02533
0.79000	0.08000	-0.02074
0.80000	0.08000	-0.01621
0.81000	0.08000	-0.01183
0.82000	0.08000	-0.00767
0.83000	0.08000	-0.00377
0.84000	0.08000	-0.00020
0.85000	0.08000	0.00301
0.86000	0.08000	0.00584
0.87000	0.08000	0.00827
0.88000	0.08000	0.01030
0.89000	0.08000	0.01192
0.90000	0.08000	0.01314
0.91000	0.08000	0.01397
0.92000	0.08000	0.01440
0.93000	0.08000	0.01443
0.94000	0.08000	0.01402
0.95000	0.08000	0.01317
0.96000	0.08000	0.01180
0.97000	0.08000	0.00988
0.98000	0.08000	0.00732
0.99000	0.08000	0.00405
1.00000	0.08000	0.00000
0.00000	0.09000	0.00000
0.01000	0.09000	-0.00235
0.02000	0.09000	-0.00373
0.03000	0.09000	-0.00429
0.04000	0.09000	-0.00416
0.05000	0.09000	-0.00349
0.06000	0.09000	-0.00236
0.07000	0.09000	-0.00089
0.08000	0.09000	0.00084
0.09000	0.09000	0.00278
0.10000	0.09000	0.00486
0.11000	0.09000	0.00704
0.12000	0.09000	0.00929
0.13000	0.09000	0.01160
0.14000	0.09000	0.01396
0.15000	0.09000	0.01637
0.16000	0.09000	0.01883
0.17000	0.09000	0.02136
0.18000	0.09000	0.02394
0.19000	0.09000	0.02658
0.20000	0.09000	0.02926
0.21000	0.09000	0.03198
0.22000	0.09000	0.03470
0.23000	0.09000	0.03740
0.24000	0.09000	0.04003
0.25000	0.09000	0.04257
0.26000	0.09000	0.04495
0.27000	0.09000	0.04714
0.28000	0.09000	0.04909
0.29000	0.09000	0.05076
0.30000	0.09000	0.05210
0.31000	0.09000	0.05309
0.32000	0.09000	0.05368
0.33000	0.09000	0.05386
0.34000	0.09000	0.05360
0.35000	0.09000	0.05291
0.36000	0.09000	0.05177
0.37000	0.09000	0.05020
0.38000	0.09000	0.04818
0.39000	0.09000	0.04575
0.40000	0.09000	0.04291
0.41000	0.09000	0.03968
0.42000	0.09000	0.03610
0.43000	0.09000	0.03218
0.44000	0.09000	0.02795
0.45000	0.09000	0.02343
0.46000	0.09000	0.01867
0.47000	0.09000	0.01369
0.48000	0.09000	0.00851
0.49000	0.09000	0.00319
0.50000	0.09000	-0.00226
0.51000	0.09000	-0.00779
0.52000	0.09000	-0.01337
0.53000	0.09000	-0.01894
0.54000	0.09000	-0.02448
0.55000	0.09000	-0.02993
0.56000	0.09000	-0.03525
0.57000	0.09000	-0.04038
0.58000	0.09000	-0.04527
0.59000	0.09000	-0.04987
0.60000	0.09000	-0.05413
0.61000	0.09000	-0.05797
0.62000	0.09000	-0.06135
0.63000	0.09000	-0.06422
0.64000	0.09000	-0.06652
0.65000	0.09000	-0.06821
0.66000	0.09000	-0.06926
0.67000	0.09000	-0.06962
0.68000	0.09000	-0.06929
0.69000	0.09000	-0.06825
0.70000	0.09000	-0.06652
0.71000	0.09000	-0.06412
0.72000	0.09000	-0.06108
0.73000	0.09000	-0.05746
0.74000	0.09000	-0.05332
0.75000	0.09000	-0.04874
0.76000	0.09000	-0.04380
0.77000	0.09000	-0.03861
0.78000	0.09000	-0.03326
0.79000	0.09000	-0.02784
0.80000	0.09000	-0.02247
0.81000	0.09000	-0.01722
0.82000	0.09000	-0.01218
0.83000	0.09000	-0.00743
0.84000	0.09000	-0.00303
0.85000	0.09000	0.00098
0.86000	0.09000	0.00455
0.87000	0.09000	0.00766
0.88000	0.09000	0.01030
0.89000	0.09000	0.01246
0.90000	0.09000	0.01414
0.91000	0.09000	0.01533
0.92000	0.09000	0.01605
0.93000	0.09000	0.01627
0.94000	0.09000	0.01597
0.95000	0.09000	0.01511
0.96000	0.09000	0.01365
0.97000	0.09000	0.01150
0.98000	0.09000	0.00858
0.99000	0.09000	0.00479
1.00000	0.09000	0.00000
0.00000	0.10000	0.00000
0.01000	0.10000	-0.00247
0.02000	0.10000	-0.00382
0.03000	0.10000	-0.00425
0.04000	0.10000	-0.00391
0.05000	0.10000	-0.00296
0.06000	0.10000	-0.00151
0.07000	0.10000	0.00033
0.08000	0.10000	0.00247
0.09000	0.10000	0.00483
0.10000	0.10000	0.00736
0.11000	0.10000	0.01001
0.12000	0.10000	0.01275
0.13000	0.10000	0.01557
0.14000	0.10000	0.01846
0.15000	0.10000	0.02141
0.16000	0.10000	0.02443
0.17000	0.10000	0.02751
0.18000	0.10000	0.03066
0.19000	0.10000	0.03386
0.20000	0.10000	0.03709
0.21000	0.10000	0.04033
0.22000	0.10000	0.04354
0.23000	0.10000	0.04669
0.24000	0.10000	0.04972
0.25000	0.10000	0.05259
0.26000	0.10000	0.05524
0.27000	0.10000	0.05761
0.28000	0.10000	0.05967
0.29000	0.10000	0.06136
0.30000	0.10000	0.06264
0.31000	0.10000	0.06348
0.32000	0.10000	0.06386
0.33000	0.10000	0.06375
0.34000	0.10000	0.06315
0.35000	0.10000	0.06205
0.36000	0.10000	0.06045
0.37000	0.10000	0.05837
0.38000	0.10000	0.05582
0.39000	0.10000	0.05281
0.40000	0.10000	0.04938
0.41000	0.10000	0.04554
0.42000	0.10000	0.04131
0.43000	0.10000	0.03674
0.44000	0.10000	0.03184
0.45000	0.10000	0.02665
0.46000	0.10000	0.02119
0.47000	0.10000	0.01550
0.48000	0.10000	0.00962
0.49000	0.10000	0.00357
0.50000	0.10000	-0.00261
0.51000	0.10000	-0.00888
0.52000	0.10000	-0.01521
0.53000	0.10000	-0.02154
0.54000	0.10000	-0.02784
0.55000	0.10000	-0.03406
0.56000	0.10000	-0.04015
0.57000	0.10000	-0.04605
0.58000	0.10000	-0.05171
0.59000	0.10000	-0.05707
0.60000	0.10000	-0.06206
0.61000	0.10000	-0.06662
0.62000	0.10000	-0.07069
0.63000	0.10000	-0.07421
0.64000	0.10000	-0.07711
0.65000	0.10000	-0.07934
0.66000	0.10000	-0.08086
0.67000	0.10000	-0.08161
0.68000	0.10000	-0.08157
0.69000	0.10000	-0.08073
0.70000	0.10000	-0.07908
0.71000	0.10000	-0.07665
0.72000	0.10000	-0.07346
0.73000	0.10000	-0.06957
0.74000	0.10000	-0.06504
0.75000	0.10000	-0.05996
0.76000	0.10000	-0.05442
0.77000	0.10000	-0.04853
0.78000	0.10000	-0.04241
0.79000	0.10000	-0.03616
0.80000	0.10000	-0.02991
0.81000	0.10000	-0.02375
0.82000	0.10000	-0.01779
0.83000	0.10000	-0.01213
0.84000	0.10000	-0.00683
0.85000	0.10000	-0.00197
0.86000	0.10000	0.00241
0.87000	0.10000	0.00628
0.88000	0.10000	0.00961
0.89000	0.10000	0.01238
0.90000	0.10000	0.01459
0.91000	0.10000	0.01623
0.92000	0.10000	0.01730
0.93000	0.10000	0.01778
0.94000	0.10000	0.01764
0.95000	0.10000	0.01683
0.96000	0.10000	0.01531
0.97000	0.10000	0.01298
0.98000	0.10000	0.00974
0.99000	0.10000	0.00546
1.00000	0.10000	0.00000
0.00000	0.11000	0.00000
0.01000	0.11000	-0.00247
0.02000	0.11000	-0.00371
0.03000	0.11000	-0.00393
0.04000	0.11000	-0.00332
0.05000	0.11000	-0.00203
0.06000	0.11000	-0.00020
0.07000	0.11000	0.00204
0.08000	0.11000	0.00462
0.09000	0.11000	0.00745
0.10000	0.11000	0.01047
0.11000	0.11000	0.01363
0.12000	0.11000	0.01691
0.13000	0.11000	0.02028
0.14000	0.11000	0.02374
0.15000	0.11000	0.02728
0.16000	0.11000	0.03089
0.17000	0.11000	0.03457
0.18000	0.11000	0.03830
0.19000	0.11000	0.04208
0.20000	0.11000	0.04586
0.21000	0.11000	0.04962
0.22000	0.11000	0.05331
0.23000	0.11000	0.05687
0.24000	0.11000	0.06025
0.25000	0.11000	0.06340
0.26000	0.11000	0.06624
0.27000	0.11000	0.06873
0.28000	0.11000	0.07081
0.29000	0.11000	0.07244
0.30000	0.11000	0.07359
0.31000	0.11000	0.07422
0.32000	0.11000	0.07431
0.33000	0.11000	0.07385
0.34000	0.11000	0.07285
0.35000	0.11000	0.07130
0.36000	0.11000	0.06921
0.37000	0.11000	0.06661
0.38000	0.11000	0.06350
0.39000	0.11000	0.05993
0.40000	0.11000	0.05590
0.41000	0.11000	0.05145
0.42000	0.11000	0.04660
0.43000	0.11000	0.04139
0.44000	0.11000	0.03584
0.45000	0.11000	0.03000
0.46000	0.11000	0.02387
0.47000	0.11000	0.01751
0.48000	0.11000	0.01094
0.49000	0.11000	0.00419
0.50000	0.11000	-0.00270
0.51000	0.11000	-0.00969
0.52000	0.11000	-0.01674
0.53000	0.11000	-0.02382
0.54000	0.11000	-0.03087
0.55000	0.11000	-0.03785
0.56000	0.11000	-0.04471
0.57000	0.11000	-0.05140
0.58000	0.11000	-0.05784
0.59000	0.11000	-0.06398
0.60000	0.11000	-0.06975
0.61000	0.11000	-0.07509
0.62000	0.11000	-0.07991
0.63000	0.11000	-0.08415
0.64000	0.11000	-0.08774
0.65000	0.11000	-0.09061
0.66000	0.11000	-0.09270
0.67000	0.11000	-0.09396
0.68000	0.11000	-0.09434