VARIABLES="U","Y"
ZONE F=POINT
J=101
0.00000	0.00000
-0.00743	0.01000
-0.01454	0.02000
-0.02136	0.03000
-0.02793	0.04000
-0.03428	0.05000
-0.04042	0.06000
-0.04639	0.07000
-0.05221	0.08000
-0.05789	0.09000
-0.06347	0.10000
-0.06895	0.11000
-0.07436	0.12000
-0.07970	0.13000
-0.08499	0.14000
-0.09024	0.15000
-0.09546	0.16000
-0.10066	0.17000
-0.10584	0.18000
-0.11102	0.19000
-0.11619	0.20000
-0.12135	0.21000
-0.12651	0.22000
-0.13166	0.23000
-0.13680	0.24000
-0.14193	0.25000
-0.14703	0.26000
-0.15209	0.27000
-0.15711	0.28000
-0.16207	0.29000
-0.16696	0.30000
-0.17174	0.31000
-0.17642	0.32000
-0.18096	0.33000
-0.18534	0.34000
-0.18953	0.35000
-0.19351	0.36000
-0.19725	0.37000
-0.20073	0.38000
-0.20390	0.39000
-0.20674	0.40000
-0.20923	0.41000
-0.21132	0.42000
-0.21299	0.43000
-0.21420	0.44000
-0.21494	0.45000
-0.21516	0.46000
-0.21486	0.47000
-0.21399	0.48000
-0.21255	0.49000
-0.21051	0.50000
-0.20786	0.51000
-0.20459	0.52000
-0.20069	0.53000
-0.19615	0.54000
-0.19097	0.55000
-0.18516	0.56000
-0.17872	0.57000
-0.17165	0.58000
-0.16398	0.59000
-0.15572	0.60000
-0.14687	0.61000
-0.13747	0.62000
-0.12753	0.63000
-0.11707	0.64000
-0.10611	0.65000
-0.09468	0.66000
-0.08278	0.67000
-0.07044	0.68000
-0.05767	0.69000
-0.04446	0.70000
-0.03083	0.71000
-0.01676	0.72000
-0.00224	0.73000
0.01277	0.74000
0.02830	0.75000
0.04441	0.76000
0.06117	0.77000
0.07868	0.78000
0.09704	0.79000
0.11641	0.80000
0.13693	0.81000
0.15880	0.82000
0.18222	0.83000
0.20743	0.84000
0.23470	0.85000
0.26429	0.86000
0.29650	0.87000
0.33159	0.88000
0.36985	0.89000
0.41150	0.90000
0.45674	0.91000
0.50568	0.92000
0.55832	0.93000
0.61456	0.94000
0.67412	0.95000
0.73657	0.96000
0.80128	0.97000
0.86744	0.98000
0.93405	0.99000
1.00000	1.00000
