VARIABLES="X","V"
ZONE F=POINT
I=101
0.00000	0.00000
0.01000	0.01823
0.02000	0.03523
0.03000	0.05103
0.04000	0.06566
0.05000	0.07917
0.06000	0.09158
0.07000	0.10294
0.08000	0.11331
0.09000	0.12272
0.10000	0.13122
0.11000	0.13886
0.12000	0.14569
0.13000	0.15176
0.14000	0.15710
0.15000	0.16176
0.16000	0.16579
0.17000	0.16922
0.18000	0.17209
0.19000	0.17442
0.20000	0.17626
0.21000	0.17762
0.22000	0.17854
0.23000	0.17903
0.24000	0.17911
0.25000	0.17881
0.26000	0.17813
0.27000	0.17708
0.28000	0.17568
0.29000	0.17393
0.30000	0.17184
0.31000	0.16941
0.32000	0.16664
0.33000	0.16354
0.34000	0.16011
0.35000	0.15634
0.36000	0.15223
0.37000	0.14778
0.38000	0.14299
0.39000	0.13785
0.40000	0.13236
0.41000	0.12651
0.42000	0.12031
0.43000	0.11375
0.44000	0.10682
0.45000	0.09952
0.46000	0.09186
0.47000	0.08383
0.48000	0.07542
0.49000	0.06664
0.50000	0.05750
0.51000	0.04799
0.52000	0.03813
0.53000	0.02791
0.54000	0.01735
0.55000	0.00647
0.56000	-0.00474
0.57000	-0.01624
0.58000	-0.02801
0.59000	-0.04004
0.60000	-0.05229
0.61000	-0.06474
0.62000	-0.07733
0.63000	-0.09003
0.64000	-0.10280
0.65000	-0.11557
0.66000	-0.12828
0.67000	-0.14088
0.68000	-0.15328
0.69000	-0.16540
0.70000	-0.17717
0.71000	-0.18848
0.72000	-0.19924
0.73000	-0.20934
0.74000	-0.21868
0.75000	-0.22714
0.76000	-0.23462
0.77000	-0.24099
0.78000	-0.24614
0.79000	-0.24998
0.80000	-0.25239
0.81000	-0.25328
0.82000	-0.25259
0.83000	-0.25024
0.84000	-0.24620
0.85000	-0.24042
0.86000	-0.23293
0.87000	-0.22372
0.88000	-0.21286
0.89000	-0.20042
0.90000	-0.18649
0.91000	-0.17119
0.92000	-0.15467
0.93000	-0.13708
0.94000	-0.11861
0.95000	-0.09944
0.96000	-0.07976
0.97000	-0.05979
0.98000	-0.03971
0.99000	-0.01972
1.00000	0.00000
