VARIABLES="X","Y","U"
ZONE  F=POINT
I=101, J=101
0.00000	0.00000	0.00000
0.01000	0.00000	0.00000
0.02000	0.00000	0.00000
0.03000	0.00000	0.00000
0.04000	0.00000	0.00000
0.05000	0.00000	0.00000
0.06000	0.00000	0.00000
0.07000	0.00000	0.00000
0.08000	0.00000	0.00000
0.09000	0.00000	0.00000
0.10000	0.00000	0.00000
0.11000	0.00000	0.00000
0.12000	0.00000	0.00000
0.13000	0.00000	0.00000
0.14000	0.00000	0.00000
0.15000	0.00000	0.00000
0.16000	0.00000	0.00000
0.17000	0.00000	0.00000
0.18000	0.00000	0.00000
0.19000	0.00000	0.00000
0.20000	0.00000	0.00000
0.21000	0.00000	0.00000
0.22000	0.00000	0.00000
0.23000	0.00000	0.00000
0.24000	0.00000	0.00000
0.25000	0.00000	0.00000
0.26000	0.00000	0.00000
0.27000	0.00000	0.00000
0.28000	0.00000	0.00000
0.29000	0.00000	0.00000
0.30000	0.00000	0.00000
0.31000	0.00000	0.00000
0.32000	0.00000	0.00000
0.33000	0.00000	0.00000
0.34000	0.00000	0.00000
0.35000	0.00000	0.00000
0.36000	0.00000	0.00000
0.37000	0.00000	0.00000
0.38000	0.00000	0.00000
0.39000	0.00000	0.00000
0.40000	0.00000	0.00000
0.41000	0.00000	0.00000
0.42000	0.00000	0.00000
0.43000	0.00000	0.00000
0.44000	0.00000	0.00000
0.45000	0.00000	0.00000
0.46000	0.00000	0.00000
0.47000	0.00000	0.00000
0.48000	0.00000	0.00000
0.49000	0.00000	0.00000
0.50000	0.00000	0.00000
0.51000	0.00000	0.00000
0.52000	0.00000	0.00000
0.53000	0.00000	0.00000
0.54000	0.00000	0.00000
0.55000	0.00000	0.00000
0.56000	0.00000	0.00000
0.57000	0.00000	0.00000
0.58000	0.00000	0.00000
0.59000	0.00000	0.00000
0.60000	0.00000	0.00000
0.61000	0.00000	0.00000
0.62000	0.00000	0.00000
0.63000	0.00000	0.00000
0.64000	0.00000	0.00000
0.65000	0.00000	0.00000
0.66000	0.00000	0.00000
0.67000	0.00000	0.00000
0.68000	0.00000	0.00000
0.69000	0.00000	0.00000
0.70000	0.00000	0.00000
0.71000	0.00000	0.00000
0.72000	0.00000	0.00000
0.73000	0.00000	0.00000
0.74000	0.00000	0.00000
0.75000	0.00000	0.00000
0.76000	0.00000	0.00000
0.77000	0.00000	0.00000
0.78000	0.00000	0.00000
0.79000	0.00000	0.00000
0.80000	0.00000	0.00000
0.81000	0.00000	0.00000
0.82000	0.00000	0.00000
0.83000	0.00000	0.00000
0.84000	0.00000	0.00000
0.85000	0.00000	0.00000
0.86000	0.00000	0.00000
0.87000	0.00000	0.00000
0.88000	0.00000	0.00000
0.89000	0.00000	0.00000
0.90000	0.00000	0.00000
0.91000	0.00000	0.00000
0.92000	0.00000	0.00000
0.93000	0.00000	0.00000
0.94000	0.00000	0.00000
0.95000	0.00000	0.00000
0.96000	0.00000	0.00000
0.97000	0.00000	0.00000
0.98000	0.00000	0.00000
0.99000	0.00000	0.00000
1.00000	0.00000	0.00000
0.00000	0.01000	0.00000
0.01000	0.01000	0.00001
0.02000	0.01000	0.00004
0.03000	0.01000	0.00006
0.04000	0.01000	0.00008
0.05000	0.01000	0.00007
0.06000	0.01000	0.00005
0.07000	0.01000	0.00001
0.08000	0.01000	-0.00006
0.09000	0.01000	-0.00014
0.10000	0.01000	-0.00025
0.11000	0.01000	-0.00037
0.12000	0.01000	-0.00051
0.13000	0.01000	-0.00067
0.14000	0.01000	-0.00085
0.15000	0.01000	-0.00103
0.16000	0.01000	-0.00123
0.17000	0.01000	-0.00144
0.18000	0.01000	-0.00166
0.19000	0.01000	-0.00188
0.20000	0.01000	-0.00211
0.21000	0.01000	-0.00235
0.22000	0.01000	-0.00259
0.23000	0.01000	-0.00283
0.24000	0.01000	-0.00308
0.25000	0.01000	-0.00333
0.26000	0.01000	-0.00357
0.27000	0.01000	-0.00382
0.28000	0.01000	-0.00407
0.29000	0.01000	-0.00431
0.30000	0.01000	-0.00455
0.31000	0.01000	-0.00478
0.32000	0.01000	-0.00501
0.33000	0.01000	-0.00524
0.34000	0.01000	-0.00546
0.35000	0.01000	-0.00567
0.36000	0.01000	-0.00587
0.37000	0.01000	-0.00607
0.38000	0.01000	-0.00625
0.39000	0.01000	-0.00643
0.40000	0.01000	-0.00659
0.41000	0.01000	-0.00674
0.42000	0.01000	-0.00688
0.43000	0.01000	-0.00700
0.44000	0.01000	-0.00712
0.45000	0.01000	-0.00721
0.46000	0.01000	-0.00729
0.47000	0.01000	-0.00735
0.48000	0.01000	-0.00740
0.49000	0.01000	-0.00743
0.50000	0.01000	-0.00744
0.51000	0.01000	-0.00743
0.52000	0.01000	-0.00740
0.53000	0.01000	-0.00735
0.54000	0.01000	-0.00729
0.55000	0.01000	-0.00720
0.56000	0.01000	-0.00710
0.57000	0.01000	-0.00698
0.58000	0.01000	-0.00684
0.59000	0.01000	-0.00668
0.60000	0.01000	-0.00651
0.61000	0.01000	-0.00631
0.62000	0.01000	-0.00611
0.63000	0.01000	-0.00588
0.64000	0.01000	-0.00565
0.65000	0.01000	-0.00540
0.66000	0.01000	-0.00514
0.67000	0.01000	-0.00487
0.68000	0.01000	-0.00459
0.69000	0.01000	-0.00431
0.70000	0.01000	-0.00402
0.71000	0.01000	-0.00373
0.72000	0.01000	-0.00343
0.73000	0.01000	-0.00314
0.74000	0.01000	-0.00285
0.75000	0.01000	-0.00256
0.76000	0.01000	-0.00228
0.77000	0.01000	-0.00200
0.78000	0.01000	-0.00174
0.79000	0.01000	-0.00149
0.80000	0.01000	-0.00125
0.81000	0.01000	-0.00102
0.82000	0.01000	-0.00081
0.83000	0.01000	-0.00062
0.84000	0.01000	-0.00044
0.85000	0.01000	-0.00029
0.86000	0.01000	-0.00015
0.87000	0.01000	-0.00004
0.88000	0.01000	0.00006
0.89000	0.01000	0.00013
0.90000	0.01000	0.00018
0.91000	0.01000	0.00022
0.92000	0.01000	0.00023
0.93000	0.01000	0.00022
0.94000	0.01000	0.00020
0.95000	0.01000	0.00017
0.96000	0.01000	0.00013
0.97000	0.01000	0.00008
0.98000	0.01000	0.00004
0.99000	0.01000	0.00001
1.00000	0.01000	0.00000
0.00000	0.02000	0.00000
0.01000	0.02000	0.00002
0.02000	0.02000	0.00005
0.03000	0.02000	0.00007
0.04000	0.02000	0.00007
0.05000	0.02000	0.00005
0.06000	0.02000	-0.00001
0.07000	0.02000	-0.00011
0.08000	0.02000	-0.00025
0.09000	0.02000	-0.00043
0.10000	0.02000	-0.00064
0.11000	0.02000	-0.00089
0.12000	0.02000	-0.00117
0.13000	0.02000	-0.00148
0.14000	0.02000	-0.00182
0.15000	0.02000	-0.00218
0.16000	0.02000	-0.00257
0.17000	0.02000	-0.00297
0.18000	0.02000	-0.00340
0.19000	0.02000	-0.00383
0.20000	0.02000	-0.00428
0.21000	0.02000	-0.00474
0.22000	0.02000	-0.00521
0.23000	0.02000	-0.00568
0.24000	0.02000	-0.00616
0.25000	0.02000	-0.00664
0.26000	0.02000	-0.00712
0.27000	0.02000	-0.00760
0.28000	0.02000	-0.00807
0.29000	0.02000	-0.00854
0.30000	0.02000	-0.00900
0.31000	0.02000	-0.00946
0.32000	0.02000	-0.00991
0.33000	0.02000	-0.01034
0.34000	0.02000	-0.01077
0.35000	0.02000	-0.01117
0.36000	0.02000	-0.01157
0.37000	0.02000	-0.01194
0.38000	0.02000	-0.01230
0.39000	0.02000	-0.01263
0.40000	0.02000	-0.01295
0.41000	0.02000	-0.01324
0.42000	0.02000	-0.01350
0.43000	0.02000	-0.01374
0.44000	0.02000	-0.01395
0.45000	0.02000	-0.01413
0.46000	0.02000	-0.01428
0.47000	0.02000	-0.01440
0.48000	0.02000	-0.01448
0.49000	0.02000	-0.01453
0.50000	0.02000	-0.01455
0.51000	0.02000	-0.01453
0.52000	0.02000	-0.01448
0.53000	0.02000	-0.01439
0.54000	0.02000	-0.01426
0.55000	0.02000	-0.01409
0.56000	0.02000	-0.01389
0.57000	0.02000	-0.01366
0.58000	0.02000	-0.01339
0.59000	0.02000	-0.01308
0.60000	0.02000	-0.01274
0.61000	0.02000	-0.01238
0.62000	0.02000	-0.01198
0.63000	0.02000	-0.01155
0.64000	0.02000	-0.01110
0.65000	0.02000	-0.01062
0.66000	0.02000	-0.01012
0.67000	0.02000	-0.00960
0.68000	0.02000	-0.00907
0.69000	0.02000	-0.00853
0.70000	0.02000	-0.00797
0.71000	0.02000	-0.00741
0.72000	0.02000	-0.00685
0.73000	0.02000	-0.00628
0.74000	0.02000	-0.00572
0.75000	0.02000	-0.00517
0.76000	0.02000	-0.00463
0.77000	0.02000	-0.00411
0.78000	0.02000	-0.00360
0.79000	0.02000	-0.00311
0.80000	0.02000	-0.00265
0.81000	0.02000	-0.00221
0.82000	0.02000	-0.00180
0.83000	0.02000	-0.00142
0.84000	0.02000	-0.00108
0.85000	0.02000	-0.00078
0.86000	0.02000	-0.00051
0.87000	0.02000	-0.00027
0.88000	0.02000	-0.00008
0.89000	0.02000	0.00007
0.90000	0.02000	0.00019
0.91000	0.02000	0.00027
0.92000	0.02000	0.00031
0.93000	0.02000	0.00032
0.94000	0.02000	0.00030
0.95000	0.02000	0.00026
0.96000	0.02000	0.00020
0.97000	0.02000	0.00014
0.98000	0.02000	0.00007
0.99000	0.02000	0.00002
1.00000	0.02000	0.00000
0.00000	0.03000	0.00000
0.01000	0.03000	0.00002
0.02000	0.03000	0.00004
0.03000	0.03000	0.00004
0.04000	0.03000	0.00001
0.05000	0.03000	-0.00005
0.06000	0.03000	-0.00017
0.07000	0.03000	-0.00034
0.08000	0.03000	-0.00056
0.09000	0.03000	-0.00083
0.10000	0.03000	-0.00116
0.11000	0.03000	-0.00153
0.12000	0.03000	-0.00194
0.13000	0.03000	-0.00240
0.14000	0.03000	-0.00290
0.15000	0.03000	-0.00343
0.16000	0.03000	-0.00400
0.17000	0.03000	-0.00459
0.18000	0.03000	-0.00521
0.19000	0.03000	-0.00584
0.20000	0.03000	-0.00650
0.21000	0.03000	-0.00717
0.22000	0.03000	-0.00785
0.23000	0.03000	-0.00854
0.24000	0.03000	-0.00923
0.25000	0.03000	-0.00993
0.26000	0.03000	-0.01063
0.27000	0.03000	-0.01133
0.28000	0.03000	-0.01202
0.29000	0.03000	-0.01270
0.30000	0.03000	-0.01338
0.31000	0.03000	-0.01404
0.32000	0.03000	-0.01469
0.33000	0.03000	-0.01532
0.34000	0.03000	-0.01593
0.35000	0.03000	-0.01652
0.36000	0.03000	-0.01709
0.37000	0.03000	-0.01764
0.38000	0.03000	-0.01815
0.39000	0.03000	-0.01864
0.40000	0.03000	-0.01909
0.41000	0.03000	-0.01951
0.42000	0.03000	-0.01989
0.43000	0.03000	-0.02023
0.44000	0.03000	-0.02053
0.45000	0.03000	-0.02079
0.46000	0.03000	-0.02100
0.47000	0.03000	-0.02117
0.48000	0.03000	-0.02129
0.49000	0.03000	-0.02136
0.50000	0.03000	-0.02138
0.51000	0.03000	-0.02135
0.52000	0.03000	-0.02127
0.53000	0.03000	-0.02113
0.54000	0.03000	-0.02095
0.55000	0.03000	-0.02071
0.56000	0.03000	-0.02041
0.57000	0.03000	-0.02007
0.58000	0.03000	-0.01968
0.59000	0.03000	-0.01924
0.60000	0.03000	-0.01875
0.61000	0.03000	-0.01822
0.62000	0.03000	-0.01764
0.63000	0.03000	-0.01702
0.64000	0.03000	-0.01637
0.65000	0.03000	-0.01568
0.66000	0.03000	-0.01496
0.67000	0.03000	-0.01422
0.68000	0.03000	-0.01345
0.69000	0.03000	-0.01267
0.70000	0.03000	-0.01187
0.71000	0.03000	-0.01106
0.72000	0.03000	-0.01025
0.73000	0.03000	-0.00943
0.74000	0.03000	-0.00863
0.75000	0.03000	-0.00783
0.76000	0.03000	-0.00705
0.77000	0.03000	-0.00629
0.78000	0.03000	-0.00555
0.79000	0.03000	-0.00485
0.80000	0.03000	-0.00417
0.81000	0.03000	-0.00353
0.82000	0.03000	-0.00294
0.83000	0.03000	-0.00239
0.84000	0.03000	-0.00188
0.85000	0.03000	-0.00143
0.86000	0.03000	-0.00103
0.87000	0.03000	-0.00068
0.88000	0.03000	-0.00038
0.89000	0.03000	-0.00014
0.90000	0.03000	0.00005
0.91000	0.03000	0.00019
0.92000	0.03000	0.00027
0.93000	0.03000	0.00031
0.94000	0.03000	0.00032
0.95000	0.03000	0.00029
0.96000	0.03000	0.00023
0.97000	0.03000	0.00016
0.98000	0.03000	0.00009
0.99000	0.03000	0.00003
1.00000	0.03000	0.00000
0.00000	0.04000	0.00000
0.01000	0.04000	0.00001
0.02000	0.04000	0.00001
0.03000	0.04000	-0.00002
0.04000	0.04000	-0.00009
0.05000	0.04000	-0.00021
0.06000	0.04000	-0.00039
0.07000	0.04000	-0.00064
0.08000	0.04000	-0.00095
0.09000	0.04000	-0.00132
0.10000	0.04000	-0.00176
0.11000	0.04000	-0.00226
0.12000	0.04000	-0.00281
0.13000	0.04000	-0.00341
0.14000	0.04000	-0.00407
0.15000	0.04000	-0.00476
0.16000	0.04000	-0.00550
0.17000	0.04000	-0.00627
0.18000	0.04000	-0.00707
0.19000	0.04000	-0.00790
0.20000	0.04000	-0.00875
0.21000	0.04000	-0.00962
0.22000	0.04000	-0.01051
0.23000	0.04000	-0.01140
0.24000	0.04000	-0.01230
0.25000	0.04000	-0.01321
0.26000	0.04000	-0.01411
0.27000	0.04000	-0.01501
0.28000	0.04000	-0.01591
0.29000	0.04000	-0.01679
0.30000	0.04000	-0.01767
0.31000	0.04000	-0.01852
0.32000	0.04000	-0.01936
0.33000	0.04000	-0.02018
0.34000	0.04000	-0.02097
0.35000	0.04000	-0.02173
0.36000	0.04000	-0.02247
0.37000	0.04000	-0.02317
0.38000	0.04000	-0.02383
0.39000	0.04000	-0.02445
0.40000	0.04000	-0.02504
0.41000	0.04000	-0.02557
0.42000	0.04000	-0.02606
0.43000	0.04000	-0.02650
0.44000	0.04000	-0.02688
0.45000	0.04000	-0.02721
0.46000	0.04000	-0.02748
0.47000	0.04000	-0.02769
0.48000	0.04000	-0.02784
0.49000	0.04000	-0.02793
0.50000	0.04000	-0.02795
0.51000	0.04000	-0.02791
0.52000	0.04000	-0.02780
0.53000	0.04000	-0.02763
0.54000	0.04000	-0.02738
0.55000	0.04000	-0.02707
0.56000	0.04000	-0.02669
0.57000	0.04000	-0.02625
0.58000	0.04000	-0.02575
0.59000	0.04000	-0.02518
0.60000	0.04000	-0.02455
0.61000	0.04000	-0.02386
0.62000	0.04000	-0.02312
0.63000	0.04000	-0.02233
0.64000	0.04000	-0.02149
0.65000	0.04000	-0.02061
0.66000	0.04000	-0.01968
0.67000	0.04000	-0.01873
0.68000	0.04000	-0.01775
0.69000	0.04000	-0.01674
0.70000	0.04000	-0.01571
0.71000	0.04000	-0.01467
0.72000	0.04000	-0.01363
0.73000	0.04000	-0.01259
0.74000	0.04000	-0.01155
0.75000	0.04000	-0.01053
0.76000	0.04000	-0.00952
0.77000	0.04000	-0.00854
0.78000	0.04000	-0.00759
0.79000	0.04000	-0.00668
0.80000	0.04000	-0.00580
0.81000	0.04000	-0.00498
0.82000	0.04000	-0.00420
0.83000	0.04000	-0.00348
0.84000	0.04000	-0.00282
0.85000	0.04000	-0.00222
0.86000	0.04000	-0.00168
0.87000	0.04000	-0.00121
0.88000	0.04000	-0.00081
0.89000	0.04000	-0.00048
0.90000	0.04000	-0.00021
0.91000	0.04000	-0.00000
0.92000	0.04000	0.00014
0.93000	0.04000	0.00023
0.94000	0.04000	0.00026
0.95000	0.04000	0.00026
0.96000	0.04000	0.00022
0.97000	0.04000	0.00016
0.98000	0.04000	0.00009
0.99000	0.04000	0.00003
1.00000	0.04000	0.00000
0.00000	0.05000	0.00000
0.01000	0.05000	-0.00000
0.02000	0.05000	-0.00003
0.03000	0.05000	-0.00009
0.04000	0.05000	-0.00021
0.05000	0.05000	-0.00040
0.06000	0.05000	-0.00066
0.07000	0.05000	-0.00099
0.08000	0.05000	-0.00140
0.09000	0.05000	-0.00188
0.10000	0.05000	-0.00243
0.11000	0.05000	-0.00305
0.12000	0.05000	-0.00374
0.13000	0.05000	-0.00449
0.14000	0.05000	-0.00530
0.15000	0.05000	-0.00616
0.16000	0.05000	-0.00706
0.17000	0.05000	-0.00800
0.18000	0.05000	-0.00898
0.19000	0.05000	-0.01000
0.20000	0.05000	-0.01104
0.21000	0.05000	-0.01210
0.22000	0.05000	-0.01317
0.23000	0.05000	-0.01426
0.24000	0.05000	-0.01536
0.25000	0.05000	-0.01646
0.26000	0.05000	-0.01756
0.27000	0.05000	-0.01866
0.28000	0.05000	-0.01975
0.29000	0.05000	-0.02082
0.30000	0.05000	-0.02188
0.31000	0.05000	-0.02292
0.32000	0.05000	-0.02394
0.33000	0.05000	-0.02493
0.34000	0.05000	-0.02589
0.35000	0.05000	-0.02682
0.36000	0.05000	-0.02770
0.37000	0.05000	-0.02855
0.38000	0.05000	-0.02935
0.39000	0.05000	-0.03011
0.40000	0.05000	-0.03081
0.41000	0.05000	-0.03145
0.42000	0.05000	-0.03204
0.43000	0.05000	-0.03257
0.44000	0.05000	-0.03303
0.45000	0.05000	-0.03342
0.46000	0.05000	-0.03375
0.47000	0.05000	-0.03400
0.48000	0.05000	-0.03418
0.49000	0.05000	-0.03428
0.50000	0.05000	-0.03430
0.51000	0.05000	-0.03425
0.52000	0.05000	-0.03411
0.53000	0.05000	-0.03390
0.54000	0.05000	-0.03360
0.55000	0.05000	-0.03322
0.56000	0.05000	-0.03276
0.57000	0.05000	-0.03223
0.58000	0.05000	-0.03162
0.59000	0.05000	-0.03093
0.60000	0.05000	-0.03017
0.61000	0.05000	-0.02934
0.62000	0.05000	-0.02845
0.63000	0.05000	-0.02749
0.64000	0.05000	-0.02648
0.65000	0.05000	-0.02542
0.66000	0.05000	-0.02431
0.67000	0.05000	-0.02315
0.68000	0.05000	-0.02197
0.69000	0.05000	-0.02075
0.70000	0.05000	-0.01952
0.71000	0.05000	-0.01827
0.72000	0.05000	-0.01701
0.73000	0.05000	-0.01575
0.74000	0.05000	-0.01450
0.75000	0.05000	-0.01326
0.76000	0.05000	-0.01204
0.77000	0.05000	-0.01085
0.78000	0.05000	-0.00970
0.79000	0.05000	-0.00859
0.80000	0.05000	-0.00752
0.81000	0.05000	-0.00651
0.82000	0.05000	-0.00556
0.83000	0.05000	-0.00468
0.84000	0.05000	-0.00386
0.85000	0.05000	-0.00312
0.86000	0.05000	-0.00245
0.87000	0.05000	-0.00186
0.88000	0.05000	-0.00135
0.89000	0.05000	-0.00091
0.90000	0.05000	-0.00056
0.91000	0.05000	-0.00028
0.92000	0.05000	-0.00007
0.93000	0.05000	0.00007
0.94000	0.05000	0.00016
0.95000	0.05000	0.00019
0.96000	0.05000	0.00018
0.97000	0.05000	0.00013
0.98000	0.05000	0.00008
0.99000	0.05000	0.00003
1.00000	0.05000	0.00000
0.00000	0.06000	0.00000
0.01000	0.06000	-0.00001
0.02000	0.06000	-0.00007
0.03000	0.06000	-0.00018
0.04000	0.06000	-0.00036
0.05000	0.06000	-0.00062
0.06000	0.06000	-0.00096
0.07000	0.06000	-0.00138
0.08000	0.06000	-0.00189
0.09000	0.06000	-0.00248
0.10000	0.06000	-0.00316
0.11000	0.06000	-0.00391
0.12000	0.06000	-0.00473
0.13000	0.06000	-0.00562
0.14000	0.06000	-0.00658
0.15000	0.06000	-0.00759
0.16000	0.06000	-0.00866
0.17000	0.06000	-0.00977
0.18000	0.06000	-0.01093
0.19000	0.06000	-0.01212
0.20000	0.06000	-0.01334
0.21000	0.06000	-0.01458
0.22000	0.06000	-0.01584
0.23000	0.06000	-0.01712
0.24000	0.06000	-0.01840
0.25000	0.06000	-0.01969
0.26000	0.06000	-0.02098
0.27000	0.06000	-0.02226
0.28000	0.06000	-0.02353
0.29000	0.06000	-0.02479
0.30000	0.06000	-0.02603
0.31000	0.06000	-0.02724
0.32000	0.06000	-0.02843
0.33000	0.06000	-0.02958
0.34000	0.06000	-0.03070
0.35000	0.06000	-0.03178
0.36000	0.06000	-0.03281
0.37000	0.06000	-0.03380
0.38000	0.06000	-0.03473
0.39000	0.06000	-0.03560
0.40000	0.06000	-0.03642
0.41000	0.06000	-0.03717
0.42000	0.06000	-0.03785
0.43000	0.06000	-0.03846
0.44000	0.06000	-0.03899
0.45000	0.06000	-0.03945
0.46000	0.06000	-0.03982
0.47000	0.06000	-0.04011
0.48000	0.06000	-0.04031
0.49000	0.06000	-0.04043
0.50000	0.06000	-0.04045
0.51000	0.06000	-0.04039
0.52000	0.06000	-0.04023
0.53000	0.06000	-0.03997
0.54000	0.06000	-0.03962
0.55000	0.06000	-0.03918
0.56000	0.06000	-0.03865
0.57000	0.06000	-0.03803
0.58000	0.06000	-0.03732
0.59000	0.06000	-0.03652
0.60000	0.06000	-0.03564
0.61000	0.06000	-0.03468
0.62000	0.06000	-0.03364
0.63000	0.06000	-0.03253
0.64000	0.06000	-0.03136
0.65000	0.06000	-0.03013
0.66000	0.06000	-0.02884
0.67000	0.06000	-0.02751
0.68000	0.06000	-0.02613
0.69000	0.06000	-0.02472
0.70000	0.06000	-0.02329
0.71000	0.06000	-0.02184
0.72000	0.06000	-0.02038
0.73000	0.06000	-0.01891
0.74000	0.06000	-0.01746
0.75000	0.06000	-0.01602
0.76000	0.06000	-0.01460
0.77000	0.06000	-0.01321
0.78000	0.06000	-0.01187
0.79000	0.06000	-0.01057
0.80000	0.06000	-0.00932
0.81000	0.06000	-0.00813
0.82000	0.06000	-0.00701
0.83000	0.06000	-0.00597
0.84000	0.06000	-0.00500
0.85000	0.06000	-0.00411
0.86000	0.06000	-0.00331
0.87000	0.06000	-0.00259
0.88000	0.06000	-0.00197
0.89000	0.06000	-0.00143
0.90000	0.06000	-0.00098
0.91000	0.06000	-0.00062
0.92000	0.06000	-0.00033
0.93000	0.06000	-0.00013
0.94000	0.06000	0.00001
0.95000	0.06000	0.00008
0.96000	0.06000	0.00011
0.97000	0.06000	0.00010
0.98000	0.06000	0.00006
0.99000	0.06000	0.00002
1.00000	0.06000	0.00000
0.00000	0.07000	0.00000
0.01000	0.07000	-0.00003
0.02000	0.07000	-0.00011
0.03000	0.07000	-0.00028
0.04000	0.07000	-0.00052
0.05000	0.07000	-0.00086
0.06000	0.07000	-0.00128
0.07000	0.07000	-0.00180
0.08000	0.07000	-0.00242
0.09000	0.07000	-0.00312
0.10000	0.07000	-0.00392
0.11000	0.07000	-0.00480
0.12000	0.07000	-0.00576
0.13000	0.07000	-0.00679
0.14000	0.07000	-0.00790
0.15000	0.07000	-0.00907
0.16000	0.07000	-0.01030
0.17000	0.07000	-0.01157
0.18000	0.07000	-0.01290
0.19000	0.07000	-0.01426
0.20000	0.07000	-0.01565
0.21000	0.07000	-0.01707
0.22000	0.07000	-0.01851
0.23000	0.07000	-0.01996
0.24000	0.07000	-0.02143
0.25000	0.07000	-0.02290
0.26000	0.07000	-0.02436
0.27000	0.07000	-0.02582
0.28000	0.07000	-0.02727
0.29000	0.07000	-0.02870
0.30000	0.07000	-0.03010
0.31000	0.07000	-0.03148
0.32000	0.07000	-0.03283
0.33000	0.07000	-0.03414
0.34000	0.07000	-0.03541
0.35000	0.07000	-0.03663
0.36000	0.07000	-0.03780
0.37000	0.07000	-0.03892
0.38000	0.07000	-0.03997
0.39000	0.07000	-0.04096
0.40000	0.07000	-0.04188
0.41000	0.07000	-0.04273
0.42000	0.07000	-0.04350
0.43000	0.07000	-0.04419
0.44000	0.07000	-0.04479
0.45000	0.07000	-0.04530
0.46000	0.07000	-0.04572
0.47000	0.07000	-0.04605
0.48000	0.07000	-0.04628
0.49000	0.07000	-0.04640
0.50000	0.07000	-0.04643
0.51000	0.07000	-0.04635
0.52000	0.07000	-0.04617
0.53000	0.07000	-0.04588
0.54000	0.07000	-0.04548
0.55000	0.07000	-0.04499
0.56000	0.07000	-0.04438
0.57000	0.07000	-0.04368
0.58000	0.07000	-0.04288
0.59000	0.07000	-0.04197
0.60000	0.07000	-0.04098
0.61000	0.07000	-0.03990
0.62000	0.07000	-0.03873
0.63000	0.07000	-0.03748
0.64000	0.07000	-0.03615
0.65000	0.07000	-0.03476
0.66000	0.07000	-0.03331
0.67000	0.07000	-0.03180
0.68000	0.07000	-0.03025
0.69000	0.07000	-0.02866
0.70000	0.07000	-0.02704
0.71000	0.07000	-0.02540
0.72000	0.07000	-0.02375
0.73000	0.07000	-0.02209
0.74000	0.07000	-0.02044
0.75000	0.07000	-0.01881
0.76000	0.07000	-0.01720
0.77000	0.07000	-0.01562
0.78000	0.07000	-0.01409
0.79000	0.07000	-0.01261
0.80000	0.07000	-0.01118
0.81000	0.07000	-0.00982
0.82000	0.07000	-0.00854
0.83000	0.07000	-0.00733
0.84000	0.07000	-0.00621
0.85000	0.07000	-0.00518
0.86000	0.07000	-0.00424
0.87000	0.07000	-0.00340
0.88000	0.07000	-0.00266
0.89000	0.07000	-0.00201
0.90000	0.07000	-0.00146
0.91000	0.07000	-0.00101
0.92000	0.07000	-0.00065
0.93000	0.07000	-0.00037
0.94000	0.07000	-0.00017
0.95000	0.07000	-0.00004
0.96000	0.07000	0.00002
0.97000	0.07000	0.00005
0.98000	0.07000	0.00004
0.99000	0.07000	0.00002
1.00000	0.07000	0.00000
0.00000	0.08000	0.00000
0.01000	0.08000	-0.00004
0.02000	0.08000	-0.00016
0.03000	0.08000	-0.00038
0.04000	0.08000	-0.00069
0.05000	0.08000	-0.00110
0.06000	0.08000	-0.00162
0.07000	0.08000	-0.00224
0.08000	0.08000	-0.00296
0.09000	0.08000	-0.00378
0.10000	0.08000	-0.00470
0.11000	0.08000	-0.00572
0.12000	0.08000	-0.00681
0.13000	0.08000	-0.00799
0.14000	0.08000	-0.00925
0.15000	0.08000	-0.01057
0.16000	0.08000	-0.01195
0.17000	0.08000	-0.01339
0.18000	0.08000	-0.01488
0.19000	0.08000	-0.01640
0.20000	0.08000	-0.01797
0.21000	0.08000	-0.01956
0.22000	0.08000	-0.02117
0.23000	0.08000	-0.02280
0.24000	0.08000	-0.02443
0.25000	0.08000	-0.02607
0.26000	0.08000	-0.02771
0.27000	0.08000	-0.02934
0.28000	0.08000	-0.03095
0.29000	0.08000	-0.03254
0.30000	0.08000	-0.03411
0.31000	0.08000	-0.03565
0.32000	0.08000	-0.03715
0.33000	0.08000	-0.03861
0.34000	0.08000	-0.04002
0.35000	0.08000	-0.04138
0.36000	0.08000	-0.04269
0.37000	0.08000	-0.04393
0.38000	0.08000	-0.04510
0.39000	0.08000	-0.04620
0.40000	0.08000	-0.04722
0.41000	0.08000	-0.04816
0.42000	0.08000	-0.04901
0.43000	0.08000	-0.04977
0.44000	0.08000	-0.05044
0.45000	0.08000	-0.05101
0.46000	0.08000	-0.05147
0.47000	0.08000	-0.05183
0.48000	0.08000	-0.05208
0.49000	0.08000	-0.05222
0.50000	0.08000	-0.05225
0.51000	0.08000	-0.05216
0.52000	0.08000	-0.05196
0.53000	0.08000	-0.05164
0.54000	0.08000	-0.05120
0.55000	0.08000	-0.05065
0.56000	0.08000	-0.04998
0.57000	0.08000	-0.04920
0.58000	0.08000	-0.04831
0.59000	0.08000	-0.04732
0.60000	0.08000	-0.04621
0.61000	0.08000	-0.04501
0.62000	0.08000	-0.04372
0.63000	0.08000	-0.04234
0.64000	0.08000	-0.04087
0.65000	0.08000	-0.03933
0.66000	0.08000	-0.03772
0.67000	0.08000	-0.03606
0.68000	0.08000	-0.03434
0.69000	0.08000	-0.03257
0.70000	0.08000	-0.03078
0.71000	0.08000	-0.02895
0.72000	0.08000	-0.02712
0.73000	0.08000	-0.02528
0.74000	0.08000	-0.02344
0.75000	0.08000	-0.02163
0.76000	0.08000	-0.01983
0.77000	0.08000	-0.01807
0.78000	0.08000	-0.01636
0.79000	0.08000	-0.01470
0.80000	0.08000	-0.01310
0.81000	0.08000	-0.01157
0.82000	0.08000	-0.01013
0.83000	0.08000	-0.00876
0.84000	0.08000	-0.00749
0.85000	0.08000	-0.00632
0.86000	0.08000	-0.00524
0.87000	0.08000	-0.00427
0.88000	0.08000	-0.00341
0.89000	0.08000	-0.00265
0.90000	0.08000	-0.00200
0.91000	0.08000	-0.00145
0.92000	0.08000	-0.00100
0.93000	0.08000	-0.00064
0.94000	0.08000	-0.00038
0.95000	0.08000	-0.00019
0.96000	0.08000	-0.00007
0.97000	0.08000	-0.00001
0.98000	0.08000	0.00001
0.99000	0.08000	0.00001
1.00000	0.08000	0.00000
0.00000	0.09000	0.00000
0.01000	0.09000	-0.00005
0.02000	0.09000	-0.00021
0.03000	0.09000	-0.00048
0.04000	0.09000	-0.00086
0.05000	0.09000	-0.00135
0.06000	0.09000	-0.00196
0.07000	0.09000	-0.00269
0.08000	0.09000	-0.00352
0.09000	0.09000	-0.00446
0.10000	0.09000	-0.00551
0.11000	0.09000	-0.00665
0.12000	0.09000	-0.00789
0.13000	0.09000	-0.00921
0.14000	0.09000	-0.01061
0.15000	0.09000	-0.01208
0.16000	0.09000	-0.01362
0.17000	0.09000	-0.01522
0.18000	0.09000	-0.01686
0.19000	0.09000	-0.01855
0.20000	0.09000	-0.02028
0.21000	0.09000	-0.02204
0.22000	0.09000	-0.02382
0.23000	0.09000	-0.02561
0.24000	0.09000	-0.02741
0.25000	0.09000	-0.02922
0.26000	0.09000	-0.03102
0.27000	0.09000	-0.03281
0.28000	0.09000	-0.03459
0.29000	0.09000	-0.03634
0.30000	0.09000	-0.03806
0.31000	0.09000	-0.03975
0.32000	0.09000	-0.04140
0.33000	0.09000	-0.04300
0.34000	0.09000	-0.04455
0.35000	0.09000	-0.04604
0.36000	0.09000	-0.04747
0.37000	0.09000	-0.04883
0.38000	0.09000	-0.05011
0.39000	0.09000	-0.05132
0.40000	0.09000	-0.05244
0.41000	0.09000	-0.05346
0.42000	0.09000	-0.05440
0.43000	0.09000	-0.05523
0.44000	0.09000	-0.05596
0.45000	0.09000	-0.05658
0.46000	0.09000	-0.05709
0.47000	0.09000	-0.05748
0.48000	0.09000	-0.05776
0.49000	0.09000	-0.05791
0.50000	0.09000	-0.05794
0.51000	0.09000	-0.05785
0.52000	0.09000	-0.05762
0.53000	0.09000	-0.05728
0.54000	0.09000	-0.05680
0.55000	0.09000	-0.05620
0.56000	0.09000	-0.05547
0.57000	0.09000	-0.05462
0.58000	0.09000	-0.05365
0.59000	0.09000	-0.05256
0.60000	0.09000	-0.05136
0.61000	0.09000	-0.05006
0.62000	0.09000	-0.04865
0.63000	0.09000	-0.04714
0.64000	0.09000	-0.04554
0.65000	0.09000	-0.04386
0.66000	0.09000	-0.04210
0.67000	0.09000	-0.04028
0.68000	0.09000	-0.03840
0.69000	0.09000	-0.03647
0.70000	0.09000	-0.03451
0.71000	0.09000	-0.03252
0.72000	0.09000	-0.03050
0.73000	0.09000	-0.02849
0.74000	0.09000	-0.02647
0.75000	0.09000	-0.02448
0.76000	0.09000	-0.02250
0.77000	0.09000	-0.02057
0.78000	0.09000	-0.01868
0.79000	0.09000	-0.01684
0.80000	0.09000	-0.01507
0.81000	0.09000	-0.01338
0.82000	0.09000	-0.01177
0.83000	0.09000	-0.01025
0.84000	0.09000	-0.00882
0.85000	0.09000	-0.00750
0.86000	0.09000	-0.00629
0.87000	0.09000	-0.00519
0.88000	0.09000	-0.00420
0.89000	0.09000	-0.00332
0.90000	0.09000	-0.00256
0.91000	0.09000	-0.00192
0.92000	0.09000	-0.00138
0.93000	0.09000	-0.00094
0.94000	0.09000	-0.00060
0.95000	0.09000	-0.00035
0.96000	0.09000	-0.00018
0.97000	0.09000	-0.00007
0.98000	0.09000	-0.00002
0.99000	0.09000	0.00000
1.00000	0.09000	0.00000
0.00000	0.10000	0.00000
0.01000	0.10000	-0.00006
0.02000	0.10000	-0.00026
0.03000	0.10000	-0.00058
0.04000	0.10000	-0.00103
0.05000	0.10000	-0.00161
0.06000	0.10000	-0.00231
0.07000	0.10000	-0.00314
0.08000	0.10000	-0.00409
0.09000	0.10000	-0.00515
0.10000	0.10000	-0.00632
0.11000	0.10000	-0.00760
0.12000	0.10000	-0.00897
0.13000	0.10000	-0.01043
0.14000	0.10000	-0.01198
0.15000	0.10000	-0.01360
0.16000	0.10000	-0.01530
0.17000	0.10000	-0.01705
0.18000	0.10000	-0.01885
0.19000	0.10000	-0.02070
0.20000	0.10000	-0.02259
0.21000	0.10000	-0.02451
0.22000	0.10000	-0.02645
0.23000	0.10000	-0.02840
0.24000	0.10000	-0.03037
0.25000	0.10000	-0.03233
0.26000	0.10000	-0.03429
0.27000	0.10000	-0.03624
0.28000	0.10000	-0.03817
0.29000	0.10000	-0.04008
0.30000	0.10000	-0.04195
0.31000	0.10000	-0.04378
0.32000	0.10000	-0.04557
0.33000	0.10000	-0.04731
0.34000	0.10000	-0.04899
0.35000	0.10000	-0.05061
0.36000	0.10000	-0.05216
0.37000	0.10000	-0.05363
0.38000	0.10000	-0.05503
0.39000	0.10000	-0.05633
0.40000	0.10000	-0.05754
0.41000	0.10000	-0.05866
0.42000	0.10000	-0.05967
0.43000	0.10000	-0.06057
0.44000	0.10000	-0.06137
0.45000	0.10000	-0.06204
0.46000	0.10000	-0.06259
0.47000	0.10000	-0.06302
0.48000	0.10000	-0.06332
0.49000	0.10000	-0.06348
0.50000	0.10000	-0.06352
0.51000	0.10000	-0.06342
0.52000	0.10000	-0.06318
0.53000	0.10000	-0.06281
0.54000	0.10000	-0.06230
0.55000	0.10000	-0.06165
0.56000	0.10000	-0.06087
0.57000	0.10000	-0.05996
0.58000	0.10000	-0.05891
0.59000	0.10000	-0.05774
0.60000	0.10000	-0.05645
0.61000	0.10000	-0.05504
0.62000	0.10000	-0.05352
0.63000	0.10000	-0.05189
0.64000	0.10000	-0.05017
0.65000	0.10000	-0.04836
0.66000	0.10000	-0.04646
0.67000	0.10000	-0.04449
0.68000	0.10000	-0.04246
0.69000	0.10000	-0.04038
0.70000	0.10000	-0.03825
0.71000	0.10000	-0.03609
0.72000	0.10000	-0.03391
0.73000	0.10000	-0.03172
0.74000	0.10000	-0.02953
0.75000	0.10000	-0.02736
0.76000	0.10000	-0.02521
0.77000	0.10000	-0.02310
0.78000	0.10000	-0.02104
0.79000	0.10000	-0.01903
0.80000	0.10000	-0.01709
0.81000	0.10000	-0.01523
0.82000	0.10000	-0.01346
0.83000	0.10000	-0.01178
0.84000	0.10000	-0.01020
0.85000	0.10000	-0.00873
0.86000	0.10000	-0.00738
0.87000	0.10000	-0.00614
0.88000	0.10000	-0.00503
0.89000	0.10000	-0.00403
0.90000	0.10000	-0.00316
0.91000	0.10000	-0.00241
0.92000	0.10000	-0.00177
0.93000	0.10000	-0.00125
0.94000	0.10000	-0.00084
0.95000	0.10000	-0.00052
0.96000	0.10000	-0.00029
0.97000	0.10000	-0.00014
0.98000	0.10000	-0.00005
0.99000	0.10000	-0.00001
1.00000	0.10000	0.00000
0.00000	0.11000	0.00000
0.01000	0.11000	-0.00008
0.02000	0.11000	-0.00030
0.03000	0.11000	-0.00068
0.04000	0.11000	-0.00120
0.05000	0.11000	-0.00186
0.06000	0.11000	-0.00266
0.07000	0.11000	-0.00359
0.08000	0.11000	-0.00465
0.09000	0.11000	-0.00584
0.10000	0.11000	-0.00714
0.11000	0.11000	-0.00855
0.12000	0.11000	-0.01006
0.13000	0.11000	-0.01166
0.14000	0.11000	-0.01335
0.15000	0.11000	-0.01513
0.16000	0.11000	-0.01697
0.17000	0.11000	-0.01887
0.18000	0.11000	-0.02083
0.19000	0.11000	-0.02284
0.20000	0.11000	-0.02488
0.21000	0.11000	-0.02696
0.22000	0.11000	-0.02905
0.23000	0.11000	-0.03117
0.24000	0.11000	-0.03329
0.25000	0.11000	-0.03541
0.26000	0.11000	-0.03753
0.27000	0.11000	-0.03963
0.28000	0.11000	-0.04171
0.29000	0.11000	-0.04376
0.30000	0.11000	-0.04578
0.31000	0.11000	-0.04775
0.32000	0.11000	-0.04968
0.33000	0.11000	-0.05155
0.34000	0.11000	-0.05336
0.35000	0.11000	-0.05510
0.36000	0.11000	-0.05676
0.37000	0.11000	-0.05835
0.38000	0.11000	-0.05985
0.39000	0.11000	-0.06125
0.40000	0.11000	-0.06256
0.41000	0.11000	-0.06375
0.42000	0.11000	-0.06484
0.43000	0.11000	-0.06582
0.44000	0.11000	-0.06667
0.45000	0.11000	-0.06739
0.46000	0.11000	-0.06799
0.47000	0.11000	-0.06845