VARIABLES="X","Y","U","V"
ZONE  F=POINT
I=101, J=101
0.00000	0.00000	0.00000	0.00000
0.01000	0.00000	0.00000	0.00000
0.02000	0.00000	0.00000	0.00000
0.03000	0.00000	0.00000	0.00000
0.04000	0.00000	0.00000	0.00000
0.05000	0.00000	0.00000	0.00000
0.06000	0.00000	0.00000	0.00000
0.07000	0.00000	0.00000	0.00000
0.08000	0.00000	0.00000	0.00000
0.09000	0.00000	0.00000	0.00000
0.10000	0.00000	0.00000	0.00000
0.11000	0.00000	0.00000	0.00000
0.12000	0.00000	0.00000	0.00000
0.13000	0.00000	0.00000	0.00000
0.14000	0.00000	0.00000	0.00000
0.15000	0.00000	0.00000	0.00000
0.16000	0.00000	0.00000	0.00000
0.17000	0.00000	0.00000	0.00000
0.18000	0.00000	0.00000	0.00000
0.19000	0.00000	0.00000	0.00000
0.20000	0.00000	0.00000	0.00000
0.21000	0.00000	0.00000	0.00000
0.22000	0.00000	0.00000	0.00000
0.23000	0.00000	0.00000	0.00000
0.24000	0.00000	0.00000	0.00000
0.25000	0.00000	0.00000	0.00000
0.26000	0.00000	0.00000	0.00000
0.27000	0.00000	0.00000	0.00000
0.28000	0.00000	0.00000	0.00000
0.29000	0.00000	0.00000	0.00000
0.30000	0.00000	0.00000	0.00000
0.31000	0.00000	0.00000	0.00000
0.32000	0.00000	0.00000	0.00000
0.33000	0.00000	0.00000	0.00000
0.34000	0.00000	0.00000	0.00000
0.35000	0.00000	0.00000	0.00000
0.36000	0.00000	0.00000	0.00000
0.37000	0.00000	0.00000	0.00000
0.38000	0.00000	0.00000	0.00000
0.39000	0.00000	0.00000	0.00000
0.40000	0.00000	0.00000	0.00000
0.41000	0.00000	0.00000	0.00000
0.42000	0.00000	0.00000	0.00000
0.43000	0.00000	0.00000	0.00000
0.44000	0.00000	0.00000	0.00000
0.45000	0.00000	0.00000	0.00000
0.46000	0.00000	0.00000	0.00000
0.47000	0.00000	0.00000	0.00000
0.48000	0.00000	0.00000	0.00000
0.49000	0.00000	0.00000	0.00000
0.50000	0.00000	0.00000	0.00000
0.51000	0.00000	0.00000	0.00000
0.52000	0.00000	0.00000	0.00000
0.53000	0.00000	0.00000	0.00000
0.54000	0.00000	0.00000	0.00000
0.55000	0.00000	0.00000	0.00000
0.56000	0.00000	0.00000	0.00000
0.57000	0.00000	0.00000	0.00000
0.58000	0.00000	0.00000	0.00000
0.59000	0.00000	0.00000	0.00000
0.60000	0.00000	0.00000	0.00000
0.61000	0.00000	0.00000	0.00000
0.62000	0.00000	0.00000	0.00000
0.63000	0.00000	0.00000	0.00000
0.64000	0.00000	0.00000	0.00000
0.65000	0.00000	0.00000	0.00000
0.66000	0.00000	0.00000	0.00000
0.67000	0.00000	0.00000	0.00000
0.68000	0.00000	0.00000	0.00000
0.69000	0.00000	0.00000	0.00000
0.70000	0.00000	0.00000	0.00000
0.71000	0.00000	0.00000	0.00000
0.72000	0.00000	0.00000	0.00000
0.73000	0.00000	0.00000	0.00000
0.74000	0.00000	0.00000	0.00000
0.75000	0.00000	0.00000	0.00000
0.76000	0.00000	0.00000	0.00000
0.77000	0.00000	0.00000	0.00000
0.78000	0.00000	0.00000	0.00000
0.79000	0.00000	0.00000	0.00000
0.80000	0.00000	0.00000	0.00000
0.81000	0.00000	0.00000	0.00000
0.82000	0.00000	0.00000	0.00000
0.83000	0.00000	0.00000	0.00000
0.84000	0.00000	0.00000	0.00000
0.85000	0.00000	0.00000	0.00000
0.86000	0.00000	0.00000	0.00000
0.87000	0.00000	0.00000	0.00000
0.88000	0.00000	0.00000	0.00000
0.89000	0.00000	0.00000	0.00000
0.90000	0.00000	0.00000	0.00000
0.91000	0.00000	0.00000	0.00000
0.92000	0.00000	0.00000	0.00000
0.93000	0.00000	0.00000	0.00000
0.94000	0.00000	0.00000	0.00000
0.95000	0.00000	0.00000	0.00000
0.96000	0.00000	0.00000	0.00000
0.97000	0.00000	0.00000	0.00000
0.98000	0.00000	0.00000	0.00000
0.99000	0.00000	0.00000	0.00000
1.00000	0.00000	0.00000	0.00000
0.00000	0.01000	0.00000	0.00000
0.01000	0.01000	0.00001	-0.00001
0.02000	0.01000	0.00004	-0.00002
0.03000	0.01000	0.00006	-0.00002
0.04000	0.01000	0.00008	-0.00001
0.05000	0.01000	0.00007	0.00000
0.06000	0.01000	0.00005	0.00001
0.07000	0.01000	0.00001	0.00002
0.08000	0.01000	-0.00006	0.00004
0.09000	0.01000	-0.00014	0.00005
0.10000	0.01000	-0.00025	0.00006
0.11000	0.01000	-0.00037	0.00007
0.12000	0.01000	-0.00051	0.00008
0.13000	0.01000	-0.00067	0.00009
0.14000	0.01000	-0.00085	0.00009
0.15000	0.01000	-0.00103	0.00010
0.16000	0.01000	-0.00123	0.00010
0.17000	0.01000	-0.00144	0.00011
0.18000	0.01000	-0.00166	0.00011
0.19000	0.01000	-0.00188	0.00012
0.20000	0.01000	-0.00211	0.00012
0.21000	0.01000	-0.00235	0.00012
0.22000	0.01000	-0.00259	0.00013
0.23000	0.01000	-0.00283	0.00013
0.24000	0.01000	-0.00308	0.00013
0.25000	0.01000	-0.00333	0.00013
0.26000	0.01000	-0.00357	0.00013
0.27000	0.01000	-0.00382	0.00013
0.28000	0.01000	-0.00407	0.00013
0.29000	0.01000	-0.00431	0.00012
0.30000	0.01000	-0.00455	0.00012
0.31000	0.01000	-0.00478	0.00012
0.32000	0.01000	-0.00501	0.00012
0.33000	0.01000	-0.00524	0.00011
0.34000	0.01000	-0.00546	0.00011
0.35000	0.01000	-0.00567	0.00011
0.36000	0.01000	-0.00587	0.00010
0.37000	0.01000	-0.00607	0.00010
0.38000	0.01000	-0.00625	0.00009
0.39000	0.01000	-0.00643	0.00009
0.40000	0.01000	-0.00659	0.00008
0.41000	0.01000	-0.00674	0.00008
0.42000	0.01000	-0.00688	0.00007
0.43000	0.01000	-0.00700	0.00006
0.44000	0.01000	-0.00712	0.00005
0.45000	0.01000	-0.00721	0.00005
0.46000	0.01000	-0.00729	0.00004
0.47000	0.01000	-0.00735	0.00003
0.48000	0.01000	-0.00740	0.00002
0.49000	0.01000	-0.00743	0.00001
0.50000	0.01000	-0.00744	0.00000
0.51000	0.01000	-0.00743	-0.00001
0.52000	0.01000	-0.00740	-0.00002
0.53000	0.01000	-0.00735	-0.00003
0.54000	0.01000	-0.00729	-0.00004
0.55000	0.01000	-0.00720	-0.00005
0.56000	0.01000	-0.00710	-0.00006
0.57000	0.01000	-0.00698	-0.00007
0.58000	0.01000	-0.00684	-0.00008
0.59000	0.01000	-0.00668	-0.00009
0.60000	0.01000	-0.00651	-0.00010
0.61000	0.01000	-0.00631	-0.00010
0.62000	0.01000	-0.00611	-0.00011
0.63000	0.01000	-0.00588	-0.00012
0.64000	0.01000	-0.00565	-0.00013
0.65000	0.01000	-0.00540	-0.00013
0.66000	0.01000	-0.00514	-0.00014
0.67000	0.01000	-0.00487	-0.00014
0.68000	0.01000	-0.00459	-0.00015
0.69000	0.01000	-0.00431	-0.00015
0.70000	0.01000	-0.00402	-0.00015
0.71000	0.01000	-0.00373	-0.00015
0.72000	0.01000	-0.00343	-0.00015
0.73000	0.01000	-0.00314	-0.00015
0.74000	0.01000	-0.00285	-0.00015
0.75000	0.01000	-0.00256	-0.00015
0.76000	0.01000	-0.00228	-0.00014
0.77000	0.01000	-0.00200	-0.00014
0.78000	0.01000	-0.00174	-0.00013
0.79000	0.01000	-0.00149	-0.00013
0.80000	0.01000	-0.00125	-0.00012
0.81000	0.01000	-0.00102	-0.00011
0.82000	0.01000	-0.00081	-0.00010
0.83000	0.01000	-0.00062	-0.00009
0.84000	0.01000	-0.00044	-0.00008
0.85000	0.01000	-0.00029	-0.00007
0.86000	0.01000	-0.00015	-0.00006
0.87000	0.01000	-0.00004	-0.00005
0.88000	0.01000	0.00006	-0.00004
0.89000	0.01000	0.00013	-0.00003
0.90000	0.01000	0.00018	-0.00002
0.91000	0.01000	0.00022	-0.00001
0.92000	0.01000	0.00023	0.00000
0.93000	0.01000	0.00022	0.00001
0.94000	0.01000	0.00020	0.00002
0.95000	0.01000	0.00017	0.00003
0.96000	0.01000	0.00013	0.00003
0.97000	0.01000	0.00008	0.00003
0.98000	0.01000	0.00004	0.00002
0.99000	0.01000	0.00001	0.00001
1.00000	0.01000	0.00000	0.00000
0.00000	0.02000	0.00000	0.00000
0.01000	0.02000	0.00002	-0.00004
0.02000	0.02000	0.00005	-0.00005
0.03000	0.02000	0.00007	-0.00004
0.04000	0.02000	0.00007	-0.00001
0.05000	0.02000	0.00005	0.00003
0.06000	0.02000	-0.00001	0.00007
0.07000	0.02000	-0.00011	0.00011
0.08000	0.02000	-0.00025	0.00015
0.09000	0.02000	-0.00043	0.00019
0.10000	0.02000	-0.00064	0.00023
0.11000	0.02000	-0.00089	0.00027
0.12000	0.02000	-0.00117	0.00030
0.13000	0.02000	-0.00148	0.00033
0.14000	0.02000	-0.00182	0.00036
0.15000	0.02000	-0.00218	0.00038
0.16000	0.02000	-0.00257	0.00041
0.17000	0.02000	-0.00297	0.00043
0.18000	0.02000	-0.00340	0.00044
0.19000	0.02000	-0.00383	0.00046
0.20000	0.02000	-0.00428	0.00047
0.21000	0.02000	-0.00474	0.00048
0.22000	0.02000	-0.00521	0.00048
0.23000	0.02000	-0.00568	0.00049
0.24000	0.02000	-0.00616	0.00049
0.25000	0.02000	-0.00664	0.00049
0.26000	0.02000	-0.00712	0.00049
0.27000	0.02000	-0.00760	0.00049
0.28000	0.02000	-0.00807	0.00049
0.29000	0.02000	-0.00854	0.00048
0.30000	0.02000	-0.00900	0.00048
0.31000	0.02000	-0.00946	0.00047
0.32000	0.02000	-0.00991	0.00046
0.33000	0.02000	-0.01034	0.00044
0.34000	0.02000	-0.01077	0.00043
0.35000	0.02000	-0.01117	0.00042
0.36000	0.02000	-0.01157	0.00040
0.37000	0.02000	-0.01194	0.00038
0.38000	0.02000	-0.01230	0.00036
0.39000	0.02000	-0.01263	0.00034
0.40000	0.02000	-0.01295	0.00031
0.41000	0.02000	-0.01324	0.00029
0.42000	0.02000	-0.01350	0.00026
0.43000	0.02000	-0.01374	0.00023
0.44000	0.02000	-0.01395	0.00020
0.45000	0.02000	-0.01413	0.00017
0.46000	0.02000	-0.01428	0.00014
0.47000	0.02000	-0.01440	0.00011
0.48000	0.02000	-0.01448	0.00007
0.49000	0.02000	-0.01453	0.00004
0.50000	0.02000	-0.01455	0.00000
0.51000	0.02000	-0.01453	-0.00004
0.52000	0.02000	-0.01448	-0.00007
0.53000	0.02000	-0.01439	-0.00011
0.54000	0.02000	-0.01426	-0.00015
0.55000	0.02000	-0.01409	-0.00019
0.56000	0.02000	-0.01389	-0.00022
0.57000	0.02000	-0.01366	-0.00026
0.58000	0.02000	-0.01339	-0.00030
0.59000	0.02000	-0.01308	-0.00033
0.60000	0.02000	-0.01274	-0.00037
0.61000	0.02000	-0.01238	-0.00040
0.62000	0.02000	-0.01198	-0.00043
0.63000	0.02000	-0.01155	-0.00046
0.64000	0.02000	-0.01110	-0.00048
0.65000	0.02000	-0.01062	-0.00051
0.66000	0.02000	-0.01012	-0.00053
0.67000	0.02000	-0.00960	-0.00055
0.68000	0.02000	-0.00907	-0.00056
0.69000	0.02000	-0.00853	-0.00057
0.70000	0.02000	-0.00797	-0.00058
0.71000	0.02000	-0.00741	-0.00059
0.72000	0.02000	-0.00685	-0.00059
0.73000	0.02000	-0.00628	-0.00058
0.74000	0.02000	-0.00572	-0.00058
0.75000	0.02000	-0.00517	-0.00057
0.76000	0.02000	-0.00463	-0.00055
0.77000	0.02000	-0.00411	-0.00054
0.78000	0.02000	-0.00360	-0.00052
0.79000	0.02000	-0.00311	-0.00049
0.80000	0.02000	-0.00265	-0.00047
0.81000	0.02000	-0.00221	-0.00044
0.82000	0.02000	-0.00180	-0.00040
0.83000	0.02000	-0.00142	-0.00037
0.84000	0.02000	-0.00108	-0.00033
0.85000	0.02000	-0.00078	-0.00029
0.86000	0.02000	-0.00051	-0.00025
0.87000	0.02000	-0.00027	-0.00021
0.88000	0.02000	-0.00008	-0.00017
0.89000	0.02000	0.00007	-0.00013
0.90000	0.02000	0.00019	-0.00008
0.91000	0.02000	0.00027	-0.00005
0.92000	0.02000	0.00031	-0.00001
0.93000	0.02000	0.00032	0.00002
0.94000	0.02000	0.00030	0.00005
0.95000	0.02000	0.00026	0.00007
0.96000	0.02000	0.00020	0.00009
0.97000	0.02000	0.00014	0.00009
0.98000	0.02000	0.00007	0.00007
0.99000	0.02000	0.00002	0.00004
1.00000	0.02000	0.00000	0.00000
0.00000	0.03000	0.00000	0.00000
0.01000	0.03000	0.00002	-0.00006
0.02000	0.03000	0.00004	-0.00007
0.03000	0.03000	0.00004	-0.00004
0.04000	0.03000	0.00001	0.00002
0.05000	0.03000	-0.00005	0.00009
0.06000	0.03000	-0.00017	0.00017
0.07000	0.03000	-0.00034	0.00026
0.08000	0.03000	-0.00056	0.00035
0.09000	0.03000	-0.00083	0.00044
0.10000	0.03000	-0.00116	0.00052
0.11000	0.03000	-0.00153	0.00060
0.12000	0.03000	-0.00194	0.00067
0.13000	0.03000	-0.00240	0.00073
0.14000	0.03000	-0.00290	0.00079
0.15000	0.03000	-0.00343	0.00085
0.16000	0.03000	-0.00400	0.00090
0.17000	0.03000	-0.00459	0.00094
0.18000	0.03000	-0.00521	0.00097
0.19000	0.03000	-0.00584	0.00100
0.20000	0.03000	-0.00650	0.00103
0.21000	0.03000	-0.00717	0.00105
0.22000	0.03000	-0.00785	0.00107
0.23000	0.03000	-0.00854	0.00108
0.24000	0.03000	-0.00923	0.00108
0.25000	0.03000	-0.00993	0.00109
0.26000	0.03000	-0.01063	0.00109
0.27000	0.03000	-0.01133	0.00108
0.28000	0.03000	-0.01202	0.00107
0.29000	0.03000	-0.01270	0.00106
0.30000	0.03000	-0.01338	0.00104
0.31000	0.03000	-0.01404	0.00102
0.32000	0.03000	-0.01469	0.00100
0.33000	0.03000	-0.01532	0.00097
0.34000	0.03000	-0.01593	0.00094
0.35000	0.03000	-0.01652	0.00091
0.36000	0.03000	-0.01709	0.00087
0.37000	0.03000	-0.01764	0.00083
0.38000	0.03000	-0.01815	0.00079
0.39000	0.03000	-0.01864	0.00074
0.40000	0.03000	-0.01909	0.00069
0.41000	0.03000	-0.01951	0.00063
0.42000	0.03000	-0.01989	0.00057
0.43000	0.03000	-0.02023	0.00051
0.44000	0.03000	-0.02053	0.00044
0.45000	0.03000	-0.02079	0.00038
0.46000	0.03000	-0.02100	0.00031
0.47000	0.03000	-0.02117	0.00023
0.48000	0.03000	-0.02129	0.00016
0.49000	0.03000	-0.02136	0.00008
0.50000	0.03000	-0.02138	-0.00000
0.51000	0.03000	-0.02135	-0.00008
0.52000	0.03000	-0.02127	-0.00016
0.53000	0.03000	-0.02113	-0.00025
0.54000	0.03000	-0.02095	-0.00033
0.55000	0.03000	-0.02071	-0.00041
0.56000	0.03000	-0.02041	-0.00049
0.57000	0.03000	-0.02007	-0.00057
0.58000	0.03000	-0.01968	-0.00065
0.59000	0.03000	-0.01924	-0.00073
0.60000	0.03000	-0.01875	-0.00080
0.61000	0.03000	-0.01822	-0.00087
0.62000	0.03000	-0.01764	-0.00094
0.63000	0.03000	-0.01702	-0.00100
0.64000	0.03000	-0.01637	-0.00106
0.65000	0.03000	-0.01568	-0.00111
0.66000	0.03000	-0.01496	-0.00115
0.67000	0.03000	-0.01422	-0.00119
0.68000	0.03000	-0.01345	-0.00122
0.69000	0.03000	-0.01267	-0.00125
0.70000	0.03000	-0.01187	-0.00127
0.71000	0.03000	-0.01106	-0.00128
0.72000	0.03000	-0.01025	-0.00128
0.73000	0.03000	-0.00943	-0.00127
0.74000	0.03000	-0.00863	-0.00126
0.75000	0.03000	-0.00783	-0.00124
0.76000	0.03000	-0.00705	-0.00121
0.77000	0.03000	-0.00629	-0.00117
0.78000	0.03000	-0.00555	-0.00113
0.79000	0.03000	-0.00485	-0.00108
0.80000	0.03000	-0.00417	-0.00102
0.81000	0.03000	-0.00353	-0.00096
0.82000	0.03000	-0.00294	-0.00089
0.83000	0.03000	-0.00239	-0.00081
0.84000	0.03000	-0.00188	-0.00073
0.85000	0.03000	-0.00143	-0.00065
0.86000	0.03000	-0.00103	-0.00056
0.87000	0.03000	-0.00068	-0.00048
0.88000	0.03000	-0.00038	-0.00039
0.89000	0.03000	-0.00014	-0.00030
0.90000	0.03000	0.00005	-0.00021
0.91000	0.03000	0.00019	-0.00013
0.92000	0.03000	0.00027	-0.00005
0.93000	0.03000	0.00031	0.00002
0.94000	0.03000	0.00032	0.00008
0.95000	0.03000	0.00029	0.00013
0.96000	0.03000	0.00023	0.00015
0.97000	0.03000	0.00016	0.00016
0.98000	0.03000	0.00009	0.00014
0.99000	0.03000	0.00003	0.00008
1.00000	0.03000	0.00000	0.00000
0.00000	0.04000	0.00000	0.00000
0.01000	0.04000	0.00001	-0.00008
0.02000	0.04000	0.00001	-0.00007
0.03000	0.04000	-0.00002	-0.00001
0.04000	0.04000	-0.00009	0.00009
0.05000	0.04000	-0.00021	0.00021
0.06000	0.04000	-0.00039	0.00035
0.07000	0.04000	-0.00064	0.00050
0.08000	0.04000	-0.00095	0.00064
0.09000	0.04000	-0.00132	0.00079
0.10000	0.04000	-0.00176	0.00093
0.11000	0.04000	-0.00226	0.00106
0.12000	0.04000	-0.00281	0.00118
0.13000	0.04000	-0.00341	0.00129
0.14000	0.04000	-0.00407	0.00139
0.15000	0.04000	-0.00476	0.00148
0.16000	0.04000	-0.00550	0.00156
0.17000	0.04000	-0.00627	0.00163
0.18000	0.04000	-0.00707	0.00170
0.19000	0.04000	-0.00790	0.00175
0.20000	0.04000	-0.00875	0.00179
0.21000	0.04000	-0.00962	0.00183
0.22000	0.04000	-0.01051	0.00185
0.23000	0.04000	-0.01140	0.00187
0.24000	0.04000	-0.01230	0.00189
0.25000	0.04000	-0.01321	0.00189
0.26000	0.04000	-0.01411	0.00189
0.27000	0.04000	-0.01501	0.00188
0.28000	0.04000	-0.01591	0.00186
0.29000	0.04000	-0.01679	0.00184
0.30000	0.04000	-0.01767	0.00181
0.31000	0.04000	-0.01852	0.00178
0.32000	0.04000	-0.01936	0.00174
0.33000	0.04000	-0.02018	0.00169
0.34000	0.04000	-0.02097	0.00164
0.35000	0.04000	-0.02173	0.00158
0.36000	0.04000	-0.02247	0.00151
0.37000	0.04000	-0.02317	0.00144
0.38000	0.04000	-0.02383	0.00136
0.39000	0.04000	-0.02445	0.00127
0.40000	0.04000	-0.02504	0.00118
0.41000	0.04000	-0.02557	0.00109
0.42000	0.04000	-0.02606	0.00099
0.43000	0.04000	-0.02650	0.00088
0.44000	0.04000	-0.02688	0.00076
0.45000	0.04000	-0.02721	0.00065
0.46000	0.04000	-0.02748	0.00052
0.47000	0.04000	-0.02769	0.00040
0.48000	0.04000	-0.02784	0.00026
0.49000	0.04000	-0.02793	0.00013
0.50000	0.04000	-0.02795	-0.00001
0.51000	0.04000	-0.02791	-0.00015
0.52000	0.04000	-0.02780	-0.00029
0.53000	0.04000	-0.02763	-0.00043
0.54000	0.04000	-0.02738	-0.00058
0.55000	0.04000	-0.02707	-0.00072
0.56000	0.04000	-0.02669	-0.00086
0.57000	0.04000	-0.02625	-0.00100
0.58000	0.04000	-0.02575	-0.00113
0.59000	0.04000	-0.02518	-0.00126
0.60000	0.04000	-0.02455	-0.00139
0.61000	0.04000	-0.02386	-0.00151
0.62000	0.04000	-0.02312	-0.00162
0.63000	0.04000	-0.02233	-0.00173
0.64000	0.04000	-0.02149	-0.00183
0.65000	0.04000	-0.02061	-0.00191
0.66000	0.04000	-0.01968	-0.00199
0.67000	0.04000	-0.01873	-0.00206
0.68000	0.04000	-0.01775	-0.00211
0.69000	0.04000	-0.01674	-0.00216
0.70000	0.04000	-0.01571	-0.00219
0.71000	0.04000	-0.01467	-0.00221
0.72000	0.04000	-0.01363	-0.00221
0.73000	0.04000	-0.01259	-0.00220
0.74000	0.04000	-0.01155	-0.00218
0.75000	0.04000	-0.01053	-0.00215
0.76000	0.04000	-0.00952	-0.00210
0.77000	0.04000	-0.00854	-0.00204
0.78000	0.04000	-0.00759	-0.00196
0.79000	0.04000	-0.00668	-0.00187
0.80000	0.04000	-0.00580	-0.00178
0.81000	0.04000	-0.00498	-0.00167
0.82000	0.04000	-0.00420	-0.00155
0.83000	0.04000	-0.00348	-0.00142
0.84000	0.04000	-0.00282	-0.00129
0.85000	0.04000	-0.00222	-0.00115
0.86000	0.04000	-0.00168	-0.00100
0.87000	0.04000	-0.00121	-0.00085
0.88000	0.04000	-0.00081	-0.00070
0.89000	0.04000	-0.00048	-0.00056
0.90000	0.04000	-0.00021	-0.00041
0.91000	0.04000	-0.00000	-0.00027
0.92000	0.04000	0.00014	-0.00014
0.93000	0.04000	0.00023	-0.00002
0.94000	0.04000	0.00026	0.00008
0.95000	0.04000	0.00026	0.00016
0.96000	0.04000	0.00022	0.00021
0.97000	0.04000	0.00016	0.00023
0.98000	0.04000	0.00009	0.00020
0.99000	0.04000	0.00003	0.00013
1.00000	0.04000	0.00000	0.00000
0.00000	0.05000	0.00000	0.00000
0.01000	0.05000	-0.00000	-0.00008
0.02000	0.05000	-0.00003	-0.00005
0.03000	0.05000	-0.00009	0.00006
0.04000	0.05000	-0.00021	0.00021
0.05000	0.05000	-0.00040	0.00040
0.06000	0.05000	-0.00066	0.00060
0.07000	0.05000	-0.00099	0.00082
0.08000	0.05000	-0.00140	0.00103
0.09000	0.05000	-0.00188	0.00125
0.10000	0.05000	-0.00243	0.00145
0.11000	0.05000	-0.00305	0.00165
0.12000	0.05000	-0.00374	0.00183
0.13000	0.05000	-0.00449	0.00199
0.14000	0.05000	-0.00530	0.00214
0.15000	0.05000	-0.00616	0.00228
0.16000	0.05000	-0.00706	0.00240
0.17000	0.05000	-0.00800	0.00251
0.18000	0.05000	-0.00898	0.00260
0.19000	0.05000	-0.01000	0.00268
0.20000	0.05000	-0.01104	0.00275
0.21000	0.05000	-0.01210	0.00280
0.22000	0.05000	-0.01317	0.00284
0.23000	0.05000	-0.01426	0.00287
0.24000	0.05000	-0.01536	0.00289
0.25000	0.05000	-0.01646	0.00290
0.26000	0.05000	-0.01756	0.00289
0.27000	0.05000	-0.01866	0.00288
0.28000	0.05000	-0.01975	0.00285
0.29000	0.05000	-0.02082	0.00282
0.30000	0.05000	-0.02188	0.00277
0.31000	0.05000	-0.02292	0.00272
0.32000	0.05000	-0.02394	0.00266
0.33000	0.05000	-0.02493	0.00258
0.34000	0.05000	-0.02589	0.00250
0.35000	0.05000	-0.02682	0.00241
0.36000	0.05000	-0.02770	0.00230
0.37000	0.05000	-0.02855	0.00219
0.38000	0.05000	-0.02935	0.00207
0.39000	0.05000	-0.03011	0.00194
0.40000	0.05000	-0.03081	0.00180
0.41000	0.05000	-0.03145	0.00165
0.42000	0.05000	-0.03204	0.00150
0.43000	0.05000	-0.03257	0.00133
0.44000	0.05000	-0.03303	0.00116
0.45000	0.05000	-0.03342	0.00098
0.46000	0.05000	-0.03375	0.00079
0.47000	0.05000	-0.03400	0.00059
0.48000	0.05000	-0.03418	0.00039
0.49000	0.05000	-0.03428	0.00019
0.50000	0.05000	-0.03430	-0.00002
0.51000	0.05000	-0.03425	-0.00023
0.52000	0.05000	-0.03411	-0.00045
0.53000	0.05000	-0.03390	-0.00067
0.54000	0.05000	-0.03360	-0.00088
0.55000	0.05000	-0.03322	-0.00110
0.56000	0.05000	-0.03276	-0.00131
0.57000	0.05000	-0.03223	-0.00152
0.58000	0.05000	-0.03162	-0.00173
0.59000	0.05000	-0.03093	-0.00193
0.60000	0.05000	-0.03017	-0.00212
0.61000	0.05000	-0.02934	-0.00230
0.62000	0.05000	-0.02845	-0.00247
0.63000	0.05000	-0.02749	-0.00263
0.64000	0.05000	-0.02648	-0.00278
0.65000	0.05000	-0.02542	-0.00291
0.66000	0.05000	-0.02431	-0.00303
0.67000	0.05000	-0.02315	-0.00313
0.68000	0.05000	-0.02197	-0.00322
0.69000	0.05000	-0.02075	-0.00328
0.70000	0.05000	-0.01952	-0.00333
0.71000	0.05000	-0.01827	-0.00336
0.72000	0.05000	-0.01701	-0.00337
0.73000	0.05000	-0.01575	-0.00335
0.74000	0.05000	-0.01450	-0.00332
0.75000	0.05000	-0.01326	-0.00327
0.76000	0.05000	-0.01204	-0.00320
0.77000	0.05000	-0.01085	-0.00311
0.78000	0.05000	-0.00970	-0.00300
0.79000	0.05000	-0.00859	-0.00287
0.80000	0.05000	-0.00752	-0.00272
0.81000	0.05000	-0.00651	-0.00256
0.82000	0.05000	-0.00556	-0.00238
0.83000	0.05000	-0.00468	-0.00220
0.84000	0.05000	-0.00386	-0.00199
0.85000	0.05000	-0.00312	-0.00179
0.86000	0.05000	-0.00245	-0.00157
0.87000	0.05000	-0.00186	-0.00135
0.88000	0.05000	-0.00135	-0.00112
0.89000	0.05000	-0.00091	-0.00090
0.90000	0.05000	-0.00056	-0.00069
0.91000	0.05000	-0.00028	-0.00048
0.92000	0.05000	-0.00007	-0.00028
0.93000	0.05000	0.00007	-0.00010
0.94000	0.05000	0.00016	0.00005
0.95000	0.05000	0.00019	0.00017
0.96000	0.05000	0.00018	0.00025
0.97000	0.05000	0.00013	0.00029
0.98000	0.05000	0.00008	0.00026
0.99000	0.05000	0.00003	0.00017
1.00000	0.05000	0.00000	0.00000
0.00000	0.06000	0.00000	0.00000
0.01000	0.06000	-0.00001	-0.00005
0.02000	0.06000	-0.00007	0.00002
0.03000	0.06000	-0.00018	0.00018
0.04000	0.06000	-0.00036	0.00040
0.05000	0.06000	-0.00062	0.00066
0.06000	0.06000	-0.00096	0.00094
0.07000	0.06000	-0.00138	0.00123
0.08000	0.06000	-0.00189	0.00153
0.09000	0.06000	-0.00248	0.00182
0.10000	0.06000	-0.00316	0.00210
0.11000	0.06000	-0.00391	0.00237
0.12000	0.06000	-0.00473	0.00262
0.13000	0.06000	-0.00562	0.00284
0.14000	0.06000	-0.00658	0.00305
0.15000	0.06000	-0.00759	0.00324
0.16000	0.06000	-0.00866	0.00341
0.17000	0.06000	-0.00977	0.00356
0.18000	0.06000	-0.01093	0.00369
0.19000	0.06000	-0.01212	0.00380
0.20000	0.06000	-0.01334	0.00389
0.21000	0.06000	-0.01458	0.00396
0.22000	0.06000	-0.01584	0.00402
0.23000	0.06000	-0.01712	0.00406
0.24000	0.06000	-0.01840	0.00408
0.25000	0.06000	-0.01969	0.00409
0.26000	0.06000	-0.02098	0.00409
0.27000	0.06000	-0.02226	0.00406
0.28000	0.06000	-0.02353	0.00403
0.29000	0.06000	-0.02479	0.00398
0.30000	0.06000	-0.02603	0.00391
0.31000	0.06000	-0.02724	0.00384
0.32000	0.06000	-0.02843	0.00374
0.33000	0.06000	-0.02958	0.00364
0.34000	0.06000	-0.03070	0.00352
0.35000	0.06000	-0.03178	0.00339
0.36000	0.06000	-0.03281	0.00324
0.37000	0.06000	-0.03380	0.00309
0.38000	0.06000	-0.03473	0.00291
0.39000	0.06000	-0.03560	0.00273
0.40000	0.06000	-0.03642	0.00253
0.41000	0.06000	-0.03717	0.00232
0.42000	0.06000	-0.03785	0.00210
0.43000	0.06000	-0.03846	0.00187
0.44000	0.06000	-0.03899	0.00162
0.45000	0.06000	-0.03945	0.00137
0.46000	0.06000	-0.03982	0.00110
0.47000	0.06000	-0.04011	0.00083
0.48000	0.06000	-0.04031	0.00054
0.49000	0.06000	-0.04043	0.00025
0.50000	0.06000	-0.04045	-0.00004
0.51000	0.06000	-0.04039	-0.00034
0.52000	0.06000	-0.04023	-0.00064
0.53000	0.06000	-0.03997	-0.00095
0.54000	0.06000	-0.03962	-0.00125
0.55000	0.06000	-0.03918	-0.00155
0.56000	0.06000	-0.03865	-0.00185
0.57000	0.06000	-0.03803	-0.00215
0.58000	0.06000	-0.03732	-0.00243
0.59000	0.06000	-0.03652	-0.00271
0.60000	0.06000	-0.03564	-0.00298
0.61000	0.06000	-0.03468	-0.00323
0.62000	0.06000	-0.03364	-0.00347
0.63000	0.06000	-0.03253	-0.00370
0.64000	0.06000	-0.03136	-0.00390
0.65000	0.06000	-0.03013	-0.00409
0.66000	0.06000	-0.02884	-0.00425
0.67000	0.06000	-0.02751	-0.00440
0.68000	0.06000	-0.02613	-0.00452
0.69000	0.06000	-0.02472	-0.00461
0.70000	0.06000	-0.02329	-0.00468
0.71000	0.06000	-0.02184	-0.00472
0.72000	0.06000	-0.02038	-0.00473
0.73000	0.06000	-0.01891	-0.00471
0.74000	0.06000	-0.01746	-0.00467
0.75000	0.06000	-0.01602	-0.00460
0.76000	0.06000	-0.01460	-0.00450
0.77000	0.06000	-0.01321	-0.00438
0.78000	0.06000	-0.01187	-0.00423
0.79000	0.06000	-0.01057	-0.00405
0.80000	0.06000	-0.00932	-0.00385
0.81000	0.06000	-0.00813	-0.00363
0.82000	0.06000	-0.00701	-0.00339
0.83000	0.06000	-0.00597	-0.00312
0.84000	0.06000	-0.00500	-0.00285
0.85000	0.06000	-0.00411	-0.00256
0.86000	0.06000	-0.00331	-0.00226
0.87000	0.06000	-0.00259	-0.00196
0.88000	0.06000	-0.00197	-0.00165
0.89000	0.06000	-0.00143	-0.00135
0.90000	0.06000	-0.00098	-0.00105
0.91000	0.06000	-0.00062	-0.00076
0.92000	0.06000	-0.00033	-0.00049
0.93000	0.06000	-0.00013	-0.00024
0.94000	0.06000	0.00001	-0.00003
0.95000	0.06000	0.00008	0.00014
0.96000	0.06000	0.00011	0.00027
0.97000	0.06000	0.00010	0.00033
0.98000	0.06000	0.00006	0.00031
0.99000	0.06000	0.00002	0.00021
1.00000	0.06000	0.00000	0.00000
0.00000	0.07000	0.00000	0.00000
0.01000	0.07000	-0.00003	-0.00001
0.02000	0.07000	-0.00011	0.00012
0.03000	0.07000	-0.00028	0.00035
0.04000	0.07000	-0.00052	0.00065
0.05000	0.07000	-0.00086	0.00099
0.06000	0.07000	-0.00128	0.00137
0.07000	0.07000	-0.00180	0.00175
0.08000	0.07000	-0.00242	0.00213
0.09000	0.07000	-0.00312	0.00251
0.10000	0.07000	-0.00392	0.00288
0.11000	0.07000	-0.00480	0.00322
0.12000	0.07000	-0.00576	0.00354
0.13000	0.07000	-0.00679	0.00384
0.14000	0.07000	-0.00790	0.00412
0.15000	0.07000	-0.00907	0.00436
0.16000	0.07000	-0.01030	0.00458
0.17000	0.07000	-0.01157	0.00478
0.18000	0.07000	-0.01290	0.00495
0.19000	0.07000	-0.01426	0.00509
0.20000	0.07000	-0.01565	0.00521
0.21000	0.07000	-0.01707	0.00531
0.22000	0.07000	-0.01851	0.00538
0.23000	0.07000	-0.01996	0.00543
0.24000	0.07000	-0.02143	0.00546
0.25000	0.07000	-0.02290	0.00547
0.26000	0.07000	-0.02436	0.00546
0.27000	0.07000	-0.02582	0.00543
0.28000	0.07000	-0.02727	0.00538
0.29000	0.07000	-0.02870	0.00531
0.30000	0.07000	-0.03010	0.00523
0.31000	0.07000	-0.03148	0.00512
0.32000	0.07000	-0.03283	0.00500
0.33000	0.07000	-0.03414	0.00485
0.34000	0.07000	-0.03541	0.00470
0.35000	0.07000	-0.03663	0.00452
0.36000	0.07000	-0.03780	0.00432
0.37000	0.07000	-0.03892	0.00411
0.38000	0.07000	-0.03997	0.00388
0.39000	0.07000	-0.04096	0.00363
0.40000	0.07000	-0.04188	0.00337
0.41000	0.07000	-0.04273	0.00308
0.42000	0.07000	-0.04350	0.00279
0.43000	0.07000	-0.04419	0.00247
0.44000	0.07000	-0.04479	0.00215
0.45000	0.07000	-0.04530	0.00181
0.46000	0.07000	-0.04572	0.00145
0.47000	0.07000	-0.04605	0.00109
0.48000	0.07000	-0.04628	0.00071
0.49000	0.07000	-0.04640	0.00033
0.50000	0.07000	-0.04643	-0.00006
0.51000	0.07000	-0.04635	-0.00046
0.52000	0.07000	-0.04617	-0.00086
0.53000	0.07000	-0.04588	-0.00127
0.54000	0.07000	-0.04548	-0.00167
0.55000	0.07000	-0.04499	-0.00207
0.56000	0.07000	-0.04438	-0.00247
0.57000	0.07000	-0.04368	-0.00286
0.58000	0.07000	-0.04288	-0.00324
0.59000	0.07000	-0.04197	-0.00361
0.60000	0.07000	-0.04098	-0.00396
0.61000	0.07000	-0.03990	-0.00430
0.62000	0.07000	-0.03873	-0.00462
0.63000	0.07000	-0.03748	-0.00491
0.64000	0.07000	-0.03615	-0.00519
0.65000	0.07000	-0.03476	-0.00543
0.66000	0.07000	-0.03331	-0.00565
0.67000	0.07000	-0.03180	-0.00584
0.68000	0.07000	-0.03025	-0.00600
0.69000	0.07000	-0.02866	-0.00612
0.70000	0.07000	-0.02704	-0.00622
0.71000	0.07000	-0.02540	-0.00627
0.72000	0.07000	-0.02375	-0.00629
0.73000	0.07000	-0.02209	-0.00627
0.74000	0.07000	-0.02044	-0.00622
0.75000	0.07000	-0.01881	-0.00613
0.76000	0.07000	-0.01720	-0.00600
0.77000	0.07000	-0.01562	-0.00584
0.78000	0.07000	-0.01409	-0.00564
0.79000	0.07000	-0.01261	-0.00541
0.80000	0.07000	-0.01118	-0.00515
0.81000	0.07000	-0.00982	-0.00487
0.82000	0.07000	-0.00854	-0.00455
0.83000	0.07000	-0.00733	-0.00421
0.84000	0.07000	-0.00621	-0.00385
0.85000	0.07000	-0.00518	-0.00348
0.86000	0.07000	-0.00424	-0.00309
0.87000	0.07000	-0.00340	-0.00269
0.88000	0.07000	-0.00266	-0.00229
0.89000	0.07000	-0.00201	-0.00189
0.90000	0.07000	-0.00146	-0.00150
0.91000	0.07000	-0.00101	-0.00112
0.92000	0.07000	-0.00065	-0.00077
0.93000	0.07000	-0.00037	-0.00045
0.94000	0.07000	-0.00017	-0.00016
0.95000	0.07000	-0.00004	0.00007
0.96000	0.07000	0.00002	0.00024
0.97000	0.07000	0.00005	0.00034
0.98000	0.07000	0.00004	0.00034
0.99000	0.07000	0.00002	0.00023
1.00000	0.07000	0.00000	0.00000
0.00000	0.08000	0.00000	0.00000
0.01000	0.08000	-0.00004	0.00006
0.02000	0.08000	-0.00016	0.00027
0.03000	0.08000	-0.00038	0.00058
0.04000	0.08000	-0.00069	0.00097
0.05000	0.08000	-0.00110	0.00142
0.06000	0.08000	-0.00162	0.00189
0.07000	0.08000	-0.00224	0.00237
0.08000	0.08000	-0.00296	0.00285
0.09000	0.08000	-0.00378	0.00332
0.10000	0.08000	-0.00470	0.00378
0.11000	0.08000	-0.00572	0.00421
0.12000	0.08000	-0.00681	0.00461
0.13000	0.08000	-0.00799	0.00499
0.14000	0.08000	-0.00925	0.00533
0.15000	0.08000	-0.01057	0.00564
0.16000	0.08000	-0.01195	0.00592
0.17000	0.08000	-0.01339	0.00616
0.18000	0.08000	-0.01488	0.00637
0.19000	0.08000	-0.01640	0.00655
0.20000	0.08000	-0.01797	0.00670
0.21000	0.08000	-0.01956	0.00682
0.22000	0.08000	-0.02117	0.00692
0.23000	0.08000	-0.02280	0.00698
0.24000	0.08000	-0.02443	0.00702
0.25000	0.08000	-0.02607	0.00703
0.26000	0.08000	-0.02771	0.00701
0.27000	0.08000	-0.02934	0.00697
0.28000	0.08000	-0.03095	0.00690
0.29000	0.08000	-0.03254	0.00681
0.30000	0.08000	-0.03411	0.00670
0.31000	0.08000	-0.03565	0.00656
0.32000	0.08000	-0.03715	0.00640
0.33000	0.08000	-0.03861	0.00622
0.34000	0.08000	-0.04002	0.00601
0.35000	0.08000	-0.04138	0.00578
0.36000	0.08000	-0.04269	0.00553
0.37000	0.08000	-0.04393	0.00526
0.38000	0.08000	-0.04510	0.00496
0.39000	0.08000	-0.04620	0.00464
0.40000	0.08000	-0.04722	0.00430
0.41000	0.08000	-0.04816	0.00394
0.42000	0.08000	-0.04901	0.00356
0.43000	0.08000	-0.04977	0.00316
0.44000	0.08000	-0.05044	0.00274
0.45000	0.08000	-0.05101	0.00230
0.46000	0.08000	-0.05147	0.00185
0.47000	0.08000	-0.05183	0.00138
0.48000	0.08000	-0.05208	0.00090
0.49000	0.08000	-0.05222	0.00041
0.50000	0.08000	-0.05225	-0.00009
0.51000	0.08000	-0.05216	-0.00060
0.52000	0.08000	-0.05196	-0.00111
0.53000	0.08000	-0.05164	-0.00163
0.54000	0.08000	-0.05120	-0.00214
0.55000	0.08000	-0.05065	-0.00265
0.56000	0.08000	-0.04998	-0.00316
0.57000	0.08000	-0.04920	-0.00365
0.58000	0.08000	-0.04831	-0.00414
0.59000	0.08000	-0.04732	-0.00461
0.60000	0.08000	-0.04621	-0.00506
0.61000	0.08000	-0.04501	-0.00549
0.62000	0.08000	-0.04372	-0.00589
0.63000	0.08000	-0.04234	-0.00627
0.64000	0.08000	-0.04087	-0.00662
0.65000	0.08000	-0.03933	-0.00693
0.66000	0.08000	-0.03772	-0.00721
0.67000	0.08000	-0.03606	-0.00746