VARIABLES="X","Y","V"
ZONE  F=POINT
I=101, J=101
0.00000	0.00000	0.00000
0.01000	0.00000	0.00000
0.02000	0.00000	0.00000
0.03000	0.00000	0.00000
0.04000	0.00000	0.00000
0.05000	0.00000	0.00000
0.06000	0.00000	0.00000
0.07000	0.00000	0.00000
0.08000	0.00000	0.00000
0.09000	0.00000	0.00000
0.10000	0.00000	0.00000
0.11000	0.00000	0.00000
0.12000	0.00000	0.00000
0.13000	0.00000	0.00000
0.14000	0.00000	0.00000
0.15000	0.00000	0.00000
0.16000	0.00000	0.00000
0.17000	0.00000	0.00000
0.18000	0.00000	0.00000
0.19000	0.00000	0.00000
0.20000	0.00000	0.00000
0.21000	0.00000	0.00000
0.22000	0.00000	0.00000
0.23000	0.00000	0.00000
0.24000	0.00000	0.00000
0.25000	0.00000	0.00000
0.26000	0.00000	0.00000
0.27000	0.00000	0.00000
0.28000	0.00000	0.00000
0.29000	0.00000	0.00000
0.30000	0.00000	0.00000
0.31000	0.00000	0.00000
0.32000	0.00000	0.00000
0.33000	0.00000	0.00000
0.34000	0.00000	0.00000
0.35000	0.00000	0.00000
0.36000	0.00000	0.00000
0.37000	0.00000	0.00000
0.38000	0.00000	0.00000
0.39000	0.00000	0.00000
0.40000	0.00000	0.00000
0.41000	0.00000	0.00000
0.42000	0.00000	0.00000
0.43000	0.00000	0.00000
0.44000	0.00000	0.00000
0.45000	0.00000	0.00000
0.46000	0.00000	0.00000
0.47000	0.00000	0.00000
0.48000	0.00000	0.00000
0.49000	0.00000	0.00000
0.50000	0.00000	0.00000
0.51000	0.00000	0.00000
0.52000	0.00000	0.00000
0.53000	0.00000	0.00000
0.54000	0.00000	0.00000
0.55000	0.00000	0.00000
0.56000	0.00000	0.00000
0.57000	0.00000	0.00000
0.58000	0.00000	0.00000
0.59000	0.00000	0.00000
0.60000	0.00000	0.00000
0.61000	0.00000	0.00000
0.62000	0.00000	0.00000
0.63000	0.00000	0.00000
0.64000	0.00000	0.00000
0.65000	0.00000	0.00000
0.66000	0.00000	0.00000
0.67000	0.00000	0.00000
0.68000	0.00000	0.00000
0.69000	0.00000	0.00000
0.70000	0.00000	0.00000
0.71000	0.00000	0.00000
0.72000	0.00000	0.00000
0.73000	0.00000	0.00000
0.74000	0.00000	0.00000
0.75000	0.00000	0.00000
0.76000	0.00000	0.00000
0.77000	0.00000	0.00000
0.78000	0.00000	0.00000
0.79000	0.00000	0.00000
0.80000	0.00000	0.00000
0.81000	0.00000	0.00000
0.82000	0.00000	0.00000
0.83000	0.00000	0.00000
0.84000	0.00000	0.00000
0.85000	0.00000	0.00000
0.86000	0.00000	0.00000
0.87000	0.00000	0.00000
0.88000	0.00000	0.00000
0.89000	0.00000	0.00000
0.90000	0.00000	0.00000
0.91000	0.00000	0.00000
0.92000	0.00000	0.00000
0.93000	0.00000	0.00000
0.94000	0.00000	0.00000
0.95000	0.00000	0.00000
0.96000	0.00000	0.00000
0.97000	0.00000	0.00000
0.98000	0.00000	0.00000
0.99000	0.00000	0.00000
1.00000	0.00000	0.00000
0.00000	0.01000	0.00000
0.01000	0.01000	-0.00001
0.02000	0.01000	-0.00002
0.03000	0.01000	-0.00002
0.04000	0.01000	-0.00001
0.05000	0.01000	0.00000
0.06000	0.01000	0.00001
0.07000	0.01000	0.00002
0.08000	0.01000	0.00004
0.09000	0.01000	0.00005
0.10000	0.01000	0.00006
0.11000	0.01000	0.00007
0.12000	0.01000	0.00008
0.13000	0.01000	0.00009
0.14000	0.01000	0.00009
0.15000	0.01000	0.00010
0.16000	0.01000	0.00010
0.17000	0.01000	0.00011
0.18000	0.01000	0.00011
0.19000	0.01000	0.00012
0.20000	0.01000	0.00012
0.21000	0.01000	0.00012
0.22000	0.01000	0.00013
0.23000	0.01000	0.00013
0.24000	0.01000	0.00013
0.25000	0.01000	0.00013
0.26000	0.01000	0.00013
0.27000	0.01000	0.00013
0.28000	0.01000	0.00013
0.29000	0.01000	0.00012
0.30000	0.01000	0.00012
0.31000	0.01000	0.00012
0.32000	0.01000	0.00012
0.33000	0.01000	0.00011
0.34000	0.01000	0.00011
0.35000	0.01000	0.00011
0.36000	0.01000	0.00010
0.37000	0.01000	0.00010
0.38000	0.01000	0.00009
0.39000	0.01000	0.00009
0.40000	0.01000	0.00008
0.41000	0.01000	0.00008
0.42000	0.01000	0.00007
0.43000	0.01000	0.00006
0.44000	0.01000	0.00005
0.45000	0.01000	0.00005
0.46000	0.01000	0.00004
0.47000	0.01000	0.00003
0.48000	0.01000	0.00002
0.49000	0.01000	0.00001
0.50000	0.01000	0.00000
0.51000	0.01000	-0.00001
0.52000	0.01000	-0.00002
0.53000	0.01000	-0.00003
0.54000	0.01000	-0.00004
0.55000	0.01000	-0.00005
0.56000	0.01000	-0.00006
0.57000	0.01000	-0.00007
0.58000	0.01000	-0.00008
0.59000	0.01000	-0.00009
0.60000	0.01000	-0.00010
0.61000	0.01000	-0.00010
0.62000	0.01000	-0.00011
0.63000	0.01000	-0.00012
0.64000	0.01000	-0.00013
0.65000	0.01000	-0.00013
0.66000	0.01000	-0.00014
0.67000	0.01000	-0.00014
0.68000	0.01000	-0.00015
0.69000	0.01000	-0.00015
0.70000	0.01000	-0.00015
0.71000	0.01000	-0.00015
0.72000	0.01000	-0.00015
0.73000	0.01000	-0.00015
0.74000	0.01000	-0.00015
0.75000	0.01000	-0.00015
0.76000	0.01000	-0.00014
0.77000	0.01000	-0.00014
0.78000	0.01000	-0.00013
0.79000	0.01000	-0.00013
0.80000	0.01000	-0.00012
0.81000	0.01000	-0.00011
0.82000	0.01000	-0.00010
0.83000	0.01000	-0.00009
0.84000	0.01000	-0.00008
0.85000	0.01000	-0.00007
0.86000	0.01000	-0.00006
0.87000	0.01000	-0.00005
0.88000	0.01000	-0.00004
0.89000	0.01000	-0.00003
0.90000	0.01000	-0.00002
0.91000	0.01000	-0.00001
0.92000	0.01000	0.00000
0.93000	0.01000	0.00001
0.94000	0.01000	0.00002
0.95000	0.01000	0.00003
0.96000	0.01000	0.00003
0.97000	0.01000	0.00003
0.98000	0.01000	0.00002
0.99000	0.01000	0.00001
1.00000	0.01000	0.00000
0.00000	0.02000	0.00000
0.01000	0.02000	-0.00004
0.02000	0.02000	-0.00005
0.03000	0.02000	-0.00004
0.04000	0.02000	-0.00001
0.05000	0.02000	0.00003
0.06000	0.02000	0.00007
0.07000	0.02000	0.00011
0.08000	0.02000	0.00015
0.09000	0.02000	0.00019
0.10000	0.02000	0.00023
0.11000	0.02000	0.00027
0.12000	0.02000	0.00030
0.13000	0.02000	0.00033
0.14000	0.02000	0.00036
0.15000	0.02000	0.00038
0.16000	0.02000	0.00041
0.17000	0.02000	0.00043
0.18000	0.02000	0.00044
0.19000	0.02000	0.00046
0.20000	0.02000	0.00047
0.21000	0.02000	0.00048
0.22000	0.02000	0.00048
0.23000	0.02000	0.00049
0.24000	0.02000	0.00049
0.25000	0.02000	0.00049
0.26000	0.02000	0.00049
0.27000	0.02000	0.00049
0.28000	0.02000	0.00049
0.29000	0.02000	0.00048
0.30000	0.02000	0.00048
0.31000	0.02000	0.00047
0.32000	0.02000	0.00046
0.33000	0.02000	0.00044
0.34000	0.02000	0.00043
0.35000	0.02000	0.00042
0.36000	0.02000	0.00040
0.37000	0.02000	0.00038
0.38000	0.02000	0.00036
0.39000	0.02000	0.00034
0.40000	0.02000	0.00031
0.41000	0.02000	0.00029
0.42000	0.02000	0.00026
0.43000	0.02000	0.00023
0.44000	0.02000	0.00020
0.45000	0.02000	0.00017
0.46000	0.02000	0.00014
0.47000	0.02000	0.00011
0.48000	0.02000	0.00007
0.49000	0.02000	0.00004
0.50000	0.02000	0.00000
0.51000	0.02000	-0.00004
0.52000	0.02000	-0.00007
0.53000	0.02000	-0.00011
0.54000	0.02000	-0.00015
0.55000	0.02000	-0.00019
0.56000	0.02000	-0.00022
0.57000	0.02000	-0.00026
0.58000	0.02000	-0.00030
0.59000	0.02000	-0.00033
0.60000	0.02000	-0.00037
0.61000	0.02000	-0.00040
0.62000	0.02000	-0.00043
0.63000	0.02000	-0.00046
0.64000	0.02000	-0.00048
0.65000	0.02000	-0.00051
0.66000	0.02000	-0.00053
0.67000	0.02000	-0.00055
0.68000	0.02000	-0.00056
0.69000	0.02000	-0.00057
0.70000	0.02000	-0.00058
0.71000	0.02000	-0.00059
0.72000	0.02000	-0.00059
0.73000	0.02000	-0.00058
0.74000	0.02000	-0.00058
0.75000	0.02000	-0.00057
0.76000	0.02000	-0.00055
0.77000	0.02000	-0.00054
0.78000	0.02000	-0.00052
0.79000	0.02000	-0.00049
0.80000	0.02000	-0.00047
0.81000	0.02000	-0.00044
0.82000	0.02000	-0.00040
0.83000	0.02000	-0.00037
0.84000	0.02000	-0.00033
0.85000	0.02000	-0.00029
0.86000	0.02000	-0.00025
0.87000	0.02000	-0.00021
0.88000	0.02000	-0.00017
0.89000	0.02000	-0.00013
0.90000	0.02000	-0.00008
0.91000	0.02000	-0.00005
0.92000	0.02000	-0.00001
0.93000	0.02000	0.00002
0.94000	0.02000	0.00005
0.95000	0.02000	0.00007
0.96000	0.02000	0.00009
0.97000	0.02000	0.00009
0.98000	0.02000	0.00007
0.99000	0.02000	0.00004
1.00000	0.02000	0.00000
0.00000	0.03000	0.00000
0.01000	0.03000	-0.00006
0.02000	0.03000	-0.00007
0.03000	0.03000	-0.00004
0.04000	0.03000	0.00002
0.05000	0.03000	0.00009
0.06000	0.03000	0.00017
0.07000	0.03000	0.00026
0.08000	0.03000	0.00035
0.09000	0.03000	0.00044
0.10000	0.03000	0.00052
0.11000	0.03000	0.00060
0.12000	0.03000	0.00067
0.13000	0.03000	0.00073
0.14000	0.03000	0.00079
0.15000	0.03000	0.00085
0.16000	0.03000	0.00090
0.17000	0.03000	0.00094
0.18000	0.03000	0.00097
0.19000	0.03000	0.00100
0.20000	0.03000	0.00103
0.21000	0.03000	0.00105
0.22000	0.03000	0.00107
0.23000	0.03000	0.00108
0.24000	0.03000	0.00108
0.25000	0.03000	0.00109
0.26000	0.03000	0.00109
0.27000	0.03000	0.00108
0.28000	0.03000	0.00107
0.29000	0.03000	0.00106
0.30000	0.03000	0.00104
0.31000	0.03000	0.00102
0.32000	0.03000	0.00100
0.33000	0.03000	0.00097
0.34000	0.03000	0.00094
0.35000	0.03000	0.00091
0.36000	0.03000	0.00087
0.37000	0.03000	0.00083
0.38000	0.03000	0.00079
0.39000	0.03000	0.00074
0.40000	0.03000	0.00069
0.41000	0.03000	0.00063
0.42000	0.03000	0.00057
0.43000	0.03000	0.00051
0.44000	0.03000	0.00044
0.45000	0.03000	0.00038
0.46000	0.03000	0.00031
0.47000	0.03000	0.00023
0.48000	0.03000	0.00016
0.49000	0.03000	0.00008
0.50000	0.03000	-0.00000
0.51000	0.03000	-0.00008
0.52000	0.03000	-0.00016
0.53000	0.03000	-0.00025
0.54000	0.03000	-0.00033
0.55000	0.03000	-0.00041
0.56000	0.03000	-0.00049
0.57000	0.03000	-0.00057
0.58000	0.03000	-0.00065
0.59000	0.03000	-0.00073
0.60000	0.03000	-0.00080
0.61000	0.03000	-0.00087
0.62000	0.03000	-0.00094
0.63000	0.03000	-0.00100
0.64000	0.03000	-0.00106
0.65000	0.03000	-0.00111
0.66000	0.03000	-0.00115
0.67000	0.03000	-0.00119
0.68000	0.03000	-0.00122
0.69000	0.03000	-0.00125
0.70000	0.03000	-0.00127
0.71000	0.03000	-0.00128
0.72000	0.03000	-0.00128
0.73000	0.03000	-0.00127
0.74000	0.03000	-0.00126
0.75000	0.03000	-0.00124
0.76000	0.03000	-0.00121
0.77000	0.03000	-0.00117
0.78000	0.03000	-0.00113
0.79000	0.03000	-0.00108
0.80000	0.03000	-0.00102
0.81000	0.03000	-0.00096
0.82000	0.03000	-0.00089
0.83000	0.03000	-0.00081
0.84000	0.03000	-0.00073
0.85000	0.03000	-0.00065
0.86000	0.03000	-0.00056
0.87000	0.03000	-0.00048
0.88000	0.03000	-0.00039
0.89000	0.03000	-0.00030
0.90000	0.03000	-0.00021
0.91000	0.03000	-0.00013
0.92000	0.03000	-0.00005
0.93000	0.03000	0.00002
0.94000	0.03000	0.00008
0.95000	0.03000	0.00013
0.96000	0.03000	0.00015
0.97000	0.03000	0.00016
0.98000	0.03000	0.00014
0.99000	0.03000	0.00008
1.00000	0.03000	0.00000
0.00000	0.04000	0.00000
0.01000	0.04000	-0.00008
0.02000	0.04000	-0.00007
0.03000	0.04000	-0.00001
0.04000	0.04000	0.00009
0.05000	0.04000	0.00021
0.06000	0.04000	0.00035
0.07000	0.04000	0.00050
0.08000	0.04000	0.00064
0.09000	0.04000	0.00079
0.10000	0.04000	0.00093
0.11000	0.04000	0.00106
0.12000	0.04000	0.00118
0.13000	0.04000	0.00129
0.14000	0.04000	0.00139
0.15000	0.04000	0.00148
0.16000	0.04000	0.00156
0.17000	0.04000	0.00163
0.18000	0.04000	0.00170
0.19000	0.04000	0.00175
0.20000	0.04000	0.00179
0.21000	0.04000	0.00183
0.22000	0.04000	0.00185
0.23000	0.04000	0.00187
0.24000	0.04000	0.00189
0.25000	0.04000	0.00189
0.26000	0.04000	0.00189
0.27000	0.04000	0.00188
0.28000	0.04000	0.00186
0.29000	0.04000	0.00184
0.30000	0.04000	0.00181
0.31000	0.04000	0.00178
0.32000	0.04000	0.00174
0.33000	0.04000	0.00169
0.34000	0.04000	0.00164
0.35000	0.04000	0.00158
0.36000	0.04000	0.00151
0.37000	0.04000	0.00144
0.38000	0.04000	0.00136
0.39000	0.04000	0.00127
0.40000	0.04000	0.00118
0.41000	0.04000	0.00109
0.42000	0.04000	0.00099
0.43000	0.04000	0.00088
0.44000	0.04000	0.00076
0.45000	0.04000	0.00065
0.46000	0.04000	0.00052
0.47000	0.04000	0.00040
0.48000	0.04000	0.00026
0.49000	0.04000	0.00013
0.50000	0.04000	-0.00001
0.51000	0.04000	-0.00015
0.52000	0.04000	-0.00029
0.53000	0.04000	-0.00043
0.54000	0.04000	-0.00058
0.55000	0.04000	-0.00072
0.56000	0.04000	-0.00086
0.57000	0.04000	-0.00100
0.58000	0.04000	-0.00113
0.59000	0.04000	-0.00126
0.60000	0.04000	-0.00139
0.61000	0.04000	-0.00151
0.62000	0.04000	-0.00162
0.63000	0.04000	-0.00173
0.64000	0.04000	-0.00183
0.65000	0.04000	-0.00191
0.66000	0.04000	-0.00199
0.67000	0.04000	-0.00206
0.68000	0.04000	-0.00211
0.69000	0.04000	-0.00216
0.70000	0.04000	-0.00219
0.71000	0.04000	-0.00221
0.72000	0.04000	-0.00221
0.73000	0.04000	-0.00220
0.74000	0.04000	-0.00218
0.75000	0.04000	-0.00215
0.76000	0.04000	-0.00210
0.77000	0.04000	-0.00204
0.78000	0.04000	-0.00196
0.79000	0.04000	-0.00187
0.80000	0.04000	-0.00178
0.81000	0.04000	-0.00167
0.82000	0.04000	-0.00155
0.83000	0.04000	-0.00142
0.84000	0.04000	-0.00129
0.85000	0.04000	-0.00115
0.86000	0.04000	-0.00100
0.87000	0.04000	-0.00085
0.88000	0.04000	-0.00070
0.89000	0.04000	-0.00056
0.90000	0.04000	-0.00041
0.91000	0.04000	-0.00027
0.92000	0.04000	-0.00014
0.93000	0.04000	-0.00002
0.94000	0.04000	0.00008
0.95000	0.04000	0.00016
0.96000	0.04000	0.00021
0.97000	0.04000	0.00023
0.98000	0.04000	0.00020
0.99000	0.04000	0.00013
1.00000	0.04000	0.00000
0.00000	0.05000	0.00000
0.01000	0.05000	-0.00008
0.02000	0.05000	-0.00005
0.03000	0.05000	0.00006
0.04000	0.05000	0.00021
0.05000	0.05000	0.00040
0.06000	0.05000	0.00060
0.07000	0.05000	0.00082
0.08000	0.05000	0.00103
0.09000	0.05000	0.00125
0.10000	0.05000	0.00145
0.11000	0.05000	0.00165
0.12000	0.05000	0.00183
0.13000	0.05000	0.00199
0.14000	0.05000	0.00214
0.15000	0.05000	0.00228
0.16000	0.05000	0.00240
0.17000	0.05000	0.00251
0.18000	0.05000	0.00260
0.19000	0.05000	0.00268
0.20000	0.05000	0.00275
0.21000	0.05000	0.00280
0.22000	0.05000	0.00284
0.23000	0.05000	0.00287
0.24000	0.05000	0.00289
0.25000	0.05000	0.00290
0.26000	0.05000	0.00289
0.27000	0.05000	0.00288
0.28000	0.05000	0.00285
0.29000	0.05000	0.00282
0.30000	0.05000	0.00277
0.31000	0.05000	0.00272
0.32000	0.05000	0.00266
0.33000	0.05000	0.00258
0.34000	0.05000	0.00250
0.35000	0.05000	0.00241
0.36000	0.05000	0.00230
0.37000	0.05000	0.00219
0.38000	0.05000	0.00207
0.39000	0.05000	0.00194
0.40000	0.05000	0.00180
0.41000	0.05000	0.00165
0.42000	0.05000	0.00150
0.43000	0.05000	0.00133
0.44000	0.05000	0.00116
0.45000	0.05000	0.00098
0.46000	0.05000	0.00079
0.47000	0.05000	0.00059
0.48000	0.05000	0.00039
0.49000	0.05000	0.00019
0.50000	0.05000	-0.00002
0.51000	0.05000	-0.00023
0.52000	0.05000	-0.00045
0.53000	0.05000	-0.00067
0.54000	0.05000	-0.00088
0.55000	0.05000	-0.00110
0.56000	0.05000	-0.00131
0.57000	0.05000	-0.00152
0.58000	0.05000	-0.00173
0.59000	0.05000	-0.00193
0.60000	0.05000	-0.00212
0.61000	0.05000	-0.00230
0.62000	0.05000	-0.00247
0.63000	0.05000	-0.00263
0.64000	0.05000	-0.00278
0.65000	0.05000	-0.00291
0.66000	0.05000	-0.00303
0.67000	0.05000	-0.00313
0.68000	0.05000	-0.00322
0.69000	0.05000	-0.00328
0.70000	0.05000	-0.00333
0.71000	0.05000	-0.00336
0.72000	0.05000	-0.00337
0.73000	0.05000	-0.00335
0.74000	0.05000	-0.00332
0.75000	0.05000	-0.00327
0.76000	0.05000	-0.00320
0.77000	0.05000	-0.00311
0.78000	0.05000	-0.00300
0.79000	0.05000	-0.00287
0.80000	0.05000	-0.00272
0.81000	0.05000	-0.00256
0.82000	0.05000	-0.00238
0.83000	0.05000	-0.00220
0.84000	0.05000	-0.00199
0.85000	0.05000	-0.00179
0.86000	0.05000	-0.00157
0.87000	0.05000	-0.00135
0.88000	0.05000	-0.00112
0.89000	0.05000	-0.00090
0.90000	0.05000	-0.00069
0.91000	0.05000	-0.00048
0.92000	0.05000	-0.00028
0.93000	0.05000	-0.00010
0.94000	0.05000	0.00005
0.95000	0.05000	0.00017
0.96000	0.05000	0.00025
0.97000	0.05000	0.00029
0.98000	0.05000	0.00026
0.99000	0.05000	0.00017
1.00000	0.05000	0.00000
0.00000	0.06000	0.00000
0.01000	0.06000	-0.00005
0.02000	0.06000	0.00002
0.03000	0.06000	0.00018
0.04000	0.06000	0.00040
0.05000	0.06000	0.00066
0.06000	0.06000	0.00094
0.07000	0.06000	0.00123
0.08000	0.06000	0.00153
0.09000	0.06000	0.00182
0.10000	0.06000	0.00210
0.11000	0.06000	0.00237
0.12000	0.06000	0.00262
0.13000	0.06000	0.00284
0.14000	0.06000	0.00305
0.15000	0.06000	0.00324
0.16000	0.06000	0.00341
0.17000	0.06000	0.00356
0.18000	0.06000	0.00369
0.19000	0.06000	0.00380
0.20000	0.06000	0.00389
0.21000	0.06000	0.00396
0.22000	0.06000	0.00402
0.23000	0.06000	0.00406
0.24000	0.06000	0.00408
0.25000	0.06000	0.00409
0.26000	0.06000	0.00409
0.27000	0.06000	0.00406
0.28000	0.06000	0.00403
0.29000	0.06000	0.00398
0.30000	0.06000	0.00391
0.31000	0.06000	0.00384
0.32000	0.06000	0.00374
0.33000	0.06000	0.00364
0.34000	0.06000	0.00352
0.35000	0.06000	0.00339
0.36000	0.06000	0.00324
0.37000	0.06000	0.00309
0.38000	0.06000	0.00291
0.39000	0.06000	0.00273
0.40000	0.06000	0.00253
0.41000	0.06000	0.00232
0.42000	0.06000	0.00210
0.43000	0.06000	0.00187
0.44000	0.06000	0.00162
0.45000	0.06000	0.00137
0.46000	0.06000	0.00110
0.47000	0.06000	0.00083
0.48000	0.06000	0.00054
0.49000	0.06000	0.00025
0.50000	0.06000	-0.00004
0.51000	0.06000	-0.00034
0.52000	0.06000	-0.00064
0.53000	0.06000	-0.00095
0.54000	0.06000	-0.00125
0.55000	0.06000	-0.00155
0.56000	0.06000	-0.00185
0.57000	0.06000	-0.00215
0.58000	0.06000	-0.00243
0.59000	0.06000	-0.00271
0.60000	0.06000	-0.00298
0.61000	0.06000	-0.00323
0.62000	0.06000	-0.00347
0.63000	0.06000	-0.00370
0.64000	0.06000	-0.00390
0.65000	0.06000	-0.00409
0.66000	0.06000	-0.00425
0.67000	0.06000	-0.00440
0.68000	0.06000	-0.00452
0.69000	0.06000	-0.00461
0.70000	0.06000	-0.00468
0.71000	0.06000	-0.00472
0.72000	0.06000	-0.00473
0.73000	0.06000	-0.00471
0.74000	0.06000	-0.00467
0.75000	0.06000	-0.00460
0.76000	0.06000	-0.00450
0.77000	0.06000	-0.00438
0.78000	0.06000	-0.00423
0.79000	0.06000	-0.00405
0.80000	0.06000	-0.00385
0.81000	0.06000	-0.00363
0.82000	0.06000	-0.00339
0.83000	0.06000	-0.00312
0.84000	0.06000	-0.00285
0.85000	0.06000	-0.00256
0.86000	0.06000	-0.00226
0.87000	0.06000	-0.00196
0.88000	0.06000	-0.00165
0.89000	0.06000	-0.00135
0.90000	0.06000	-0.00105
0.91000	0.06000	-0.00076
0.92000	0.06000	-0.00049
0.93000	0.06000	-0.00024
0.94000	0.06000	-0.00003
0.95000	0.06000	0.00014
0.96000	0.06000	0.00027
0.97000	0.06000	0.00033
0.98000	0.06000	0.00031
0.99000	0.06000	0.00021
1.00000	0.06000	0.00000
0.00000	0.07000	0.00000
0.01000	0.07000	-0.00001
0.02000	0.07000	0.00012
0.03000	0.07000	0.00035
0.04000	0.07000	0.00065
0.05000	0.07000	0.00099
0.06000	0.07000	0.00137
0.07000	0.07000	0.00175
0.08000	0.07000	0.00213
0.09000	0.07000	0.00251
0.10000	0.07000	0.00288
0.11000	0.07000	0.00322
0.12000	0.07000	0.00354
0.13000	0.07000	0.00384
0.14000	0.07000	0.00412
0.15000	0.07000	0.00436
0.16000	0.07000	0.00458
0.17000	0.07000	0.00478
0.18000	0.07000	0.00495
0.19000	0.07000	0.00509
0.20000	0.07000	0.00521
0.21000	0.07000	0.00531
0.22000	0.07000	0.00538
0.23000	0.07000	0.00543
0.24000	0.07000	0.00546
0.25000	0.07000	0.00547
0.26000	0.07000	0.00546
0.27000	0.07000	0.00543
0.28000	0.07000	0.00538
0.29000	0.07000	0.00531
0.30000	0.07000	0.00523
0.31000	0.07000	0.00512
0.32000	0.07000	0.00500
0.33000	0.07000	0.00485
0.34000	0.07000	0.00470
0.35000	0.07000	0.00452
0.36000	0.07000	0.00432
0.37000	0.07000	0.00411
0.38000	0.07000	0.00388
0.39000	0.07000	0.00363
0.40000	0.07000	0.00337
0.41000	0.07000	0.00308
0.42000	0.07000	0.00279
0.43000	0.07000	0.00247
0.44000	0.07000	0.00215
0.45000	0.07000	0.00181
0.46000	0.07000	0.00145
0.47000	0.07000	0.00109
0.48000	0.07000	0.00071
0.49000	0.07000	0.00033
0.50000	0.07000	-0.00006
0.51000	0.07000	-0.00046
0.52000	0.07000	-0.00086
0.53000	0.07000	-0.00127
0.54000	0.07000	-0.00167
0.55000	0.07000	-0.00207
0.56000	0.07000	-0.00247
0.57000	0.07000	-0.00286
0.58000	0.07000	-0.00324
0.59000	0.07000	-0.00361
0.60000	0.07000	-0.00396
0.61000	0.07000	-0.00430
0.62000	0.07000	-0.00462
0.63000	0.07000	-0.00491
0.64000	0.07000	-0.00519
0.65000	0.07000	-0.00543
0.66000	0.07000	-0.00565
0.67000	0.07000	-0.00584
0.68000	0.07000	-0.00600
0.69000	0.07000	-0.00612
0.70000	0.07000	-0.00622
0.71000	0.07000	-0.00627
0.72000	0.07000	-0.00629
0.73000	0.07000	-0.00627
0.74000	0.07000	-0.00622
0.75000	0.07000	-0.00613
0.76000	0.07000	-0.00600
0.77000	0.07000	-0.00584
0.78000	0.07000	-0.00564
0.79000	0.07000	-0.00541
0.80000	0.07000	-0.00515
0.81000	0.07000	-0.00487
0.82000	0.07000	-0.00455
0.83000	0.07000	-0.00421
0.84000	0.07000	-0.00385
0.85000	0.07000	-0.00348
0.86000	0.07000	-0.00309
0.87000	0.07000	-0.00269
0.88000	0.07000	-0.00229
0.89000	0.07000	-0.00189
0.90000	0.07000	-0.00150
0.91000	0.07000	-0.00112
0.92000	0.07000	-0.00077
0.93000	0.07000	-0.00045
0.94000	0.07000	-0.00016
0.95000	0.07000	0.00007
0.96000	0.07000	0.00024
0.97000	0.07000	0.00034
0.98000	0.07000	0.00034
0.99000	0.07000	0.00023
1.00000	0.07000	0.00000
0.00000	0.08000	0.00000
0.01000	0.08000	0.00006
0.02000	0.08000	0.00027
0.03000	0.08000	0.00058
0.04000	0.08000	0.00097
0.05000	0.08000	0.00142
0.06000	0.08000	0.00189
0.07000	0.08000	0.00237
0.08000	0.08000	0.00285
0.09000	0.08000	0.00332
0.10000	0.08000	0.00378
0.11000	0.08000	0.00421
0.12000	0.08000	0.00461
0.13000	0.08000	0.00499
0.14000	0.08000	0.00533
0.15000	0.08000	0.00564
0.16000	0.08000	0.00592
0.17000	0.08000	0.00616
0.18000	0.08000	0.00637
0.19000	0.08000	0.00655
0.20000	0.08000	0.00670
0.21000	0.08000	0.00682
0.22000	0.08000	0.00692
0.23000	0.08000	0.00698
0.24000	0.08000	0.00702
0.25000	0.08000	0.00703
0.26000	0.08000	0.00701
0.27000	0.08000	0.00697
0.28000	0.08000	0.00690
0.29000	0.08000	0.00681
0.30000	0.08000	0.00670
0.31000	0.08000	0.00656
0.32000	0.08000	0.00640
0.33000	0.08000	0.00622
0.34000	0.08000	0.00601
0.35000	0.08000	0.00578
0.36000	0.08000	0.00553
0.37000	0.08000	0.00526
0.38000	0.08000	0.00496
0.39000	0.08000	0.00464
0.40000	0.08000	0.00430
0.41000	0.08000	0.00394
0.42000	0.08000	0.00356
0.43000	0.08000	0.00316
0.44000	0.08000	0.00274
0.45000	0.08000	0.00230
0.46000	0.08000	0.00185
0.47000	0.08000	0.00138
0.48000	0.08000	0.00090
0.49000	0.08000	0.00041
0.50000	0.08000	-0.00009
0.51000	0.08000	-0.00060
0.52000	0.08000	-0.00111
0.53000	0.08000	-0.00163
0.54000	0.08000	-0.00214
0.55000	0.08000	-0.00265
0.56000	0.08000	-0.00316
0.57000	0.08000	-0.00365
0.58000	0.08000	-0.00414
0.59000	0.08000	-0.00461
0.60000	0.08000	-0.00506
0.61000	0.08000	-0.00549
0.62000	0.08000	-0.00589
0.63000	0.08000	-0.00627
0.64000	0.08000	-0.00662
0.65000	0.08000	-0.00693
0.66000	0.08000	-0.00721
0.67000	0.08000	-0.00746
0.68000	0.08000	-0.00766
0.69000	0.08000	-0.00782
0.70000	0.08000	-0.00794
0.71000	0.08000	-0.00801
0.72000	0.08000	-0.00804
0.73000	0.08000	-0.00802
0.74000	0.08000	-0.00795
0.75000	0.08000	-0.00784
0.76000	0.08000	-0.00769
0.77000	0.08000	-0.00749
0.78000	0.08000	-0.00724
0.79000	0.08000	-0.00696
0.80000	0.08000	-0.00663
0.81000	0.08000	-0.00627
0.82000	0.08000	-0.00588
0.83000	0.08000	-0.00545
0.84000	0.08000	-0.00500
0.85000	0.08000	-0.00453
0.86000	0.08000	-0.00404
0.87000	0.08000	-0.00354
0.88000	0.08000	-0.00304
0.89000	0.08000	-0.00254
0.90000	0.08000	-0.00205
0.91000	0.08000	-0.00158
0.92000	0.08000	-0.00113
0.93000	0.08000	-0.00072
0.94000	0.08000	-0.00036
0.95000	0.08000	-0.00005
0.96000	0.08000	0.00017
0.97000	0.08000	0.00031
0.98000	0.08000	0.00034
0.99000	0.08000	0.00025
1.00000	0.08000	0.00000
0.00000	0.09000	0.00000
0.01000	0.09000	0.00015
0.02000	0.09000	0.00046
0.03000	0.09000	0.00088
0.04000	0.09000	0.00137
0.05000	0.09000	0.00192
0.06000	0.09000	0.00250
0.07000	0.09000	0.00309
0.08000	0.09000	0.00368
0.09000	0.09000	0.00425
0.10000	0.09000	0.00481
0.11000	0.09000	0.00533
0.12000	0.09000	0.00582
0.13000	0.09000	0.00628
0.14000	0.09000	0.00669
0.15000	0.09000	0.00707
0.16000	0.09000	0.00741
0.17000	0.09000	0.00770
0.18000	0.09000	0.00796
0.19000	0.09000	0.00818
0.20000	0.09000	0.00836
0.21000	0.09000	0.00851
0.22000	0.09000	0.00862
0.23000	0.09000	0.00870
0.24000	0.09000	0.00874
0.25000	0.09000	0.00875
0.26000	0.09000	0.00873
0.27000	0.09000	0.00867
0.28000	0.09000	0.00859
0.29000	0.09000	0.00848
0.30000	0.09000	0.00833
0.31000	0.09000	0.00816
0.32000	0.09000	0.00796
0.33000	0.09000	0.00773
0.34000	0.09000	0.00747
0.35000	0.09000	0.00718
0.36000	0.09000	0.00686
0.37000	0.09000	0.00652
0.38000	0.09000	0.00615
0.39000	0.09000	0.00575
0.40000	0.09000	0.00533
0.41000	0.09000	0.00488
0.42000	0.09000	0.00440
0.43000	0.09000	0.00390
0.44000	0.09000	0.00338
0.45000	0.09000	0.00284
0.46000	0.09000	0.00228
0.47000	0.09000	0.00170
0.48000	0.09000	0.00110
0.49000	0.09000	0.00049
0.50000	0.09000	-0.00013
0.51000	0.09000	-0.00075
0.52000	0.09000	-0.00139
0.53000	0.09000	-0.00202
0.54000	0.09000	-0.00266
0.55000	0.09000	-0.00329
0.56000	0.09000	-0.00391
0.57000	0.09000	-0.00453
0.58000	0.09000	-0.00513
0.59000	0.09000	-0.00570
0.60000	0.09000	-0.00626
0.61000	0.09000	-0.00679
0.62000	0.09000	-0.00729
0.63000	0.09000	-0.00776
0.64000	0.09000	-0.00819
0.65000	0.09000	-0.00858
0.66000	0.09000	-0.00893
0.67000	0.09000	-0.00923
0.68000	0.09000	-0.00948
0.69000	0.09000	-0.00968
0.70000	0.09000	-0.00983
0.71000	0.09000	-0.00993
0.72000	0.09000	-0.00997
0.73000	0.09000	-0.00995
0.74000	0.09000	-0.00987
0.75000	0.09000	-0.00974
0.76000	0.09000	-0.00955
0.77000	0.09000	-0.00931
0.78000	0.09000	-0.00902
0.79000	0.09000	-0.00867
0.80000	0.09000	-0.00828
0.81000	0.09000	-0.00784
0.82000	0.09000	-0.00736
0.83000	0.09000	-0.00685
0.84000	0.09000	-0.00630
0.85000	0.09000	-0.00572
0.86000	0.09000	-0.00513
0.87000	0.09000	-0.00452
0.88000	0.09000	-0.00391
0.89000	0.09000	-0.00330
0.90000	0.09000	-0.00270
0.91000	0.09000	-0.00212
0.92000	0.09000	-0.00157
0.93000	0.09000	-0.00107
0.94000	0.09000	-0.00062
0.95000	0.09000	-0.00024
0.96000	0.09000	0.00006
0.97000	0.09000	0.00025
0.98000	0.09000	0.00032
0.99000	0.09000	0.00025
1.00000	0.09000	0.00000
0.00000	0.10000	0.00000
0.01000	0.10000	0.00027
0.02000	0.10000	0.00069
0.03000	0.10000	0.00123
0.04000	0.10000	0.00185
0.05000	0.10000	0.00252
0.06000	0.10000	0.00322
0.07000	0.10000	0.00393
0.08000	0.10000	0.00463
0.09000	0.10000	0.00531
0.10000	0.10000	0.00597
0.11000	0.10000	0.00659
0.12000	0.10000	0.00717
0.13000	0.10000	0.00771
0.14000	0.10000	0.00820
0.15000	0.10000	0.00865
0.16000	0.10000	0.00905
0.17000	0.10000	0.00940
0.18000	0.10000	0.00971
0.19000	0.10000	0.00997
0.20000	0.10000	0.01019
0.21000	0.10000	0.01036
0.22000	0.10000	0.01049
0.23000	0.10000	0.01058
0.24000	0.10000	0.01062
0.25000	0.10000	0.01063
0.26000	0.10000	0.01060
0.27000	0.10000	0.01053
0.28000	0.10000	0.01043
0.29000	0.10000	0.01029
0.30000	0.10000	0.01011
0.31000	0.10000	0.00990
0.32000	0.10000	0.00965
0.33000	0.10000	0.00937
0.34000	0.10000	0.00905
0.35000	0.10000	0.00870
0.36000	0.10000	0.00832
0.37000	0.10000	0.00790
0.38000	0.10000	0.00745
0.39000	0.10000	0.00696
0.40000	0.10000	0.00645
0.41000	0.10000	0.00590
0.42000	0.10000	0.00532
0.43000	0.10000	0.00472
0.44000	0.10000	0.00409
0.45000	0.10000	0.00343
0.46000	0.10000	0.00275
0.47000	0.10000	0.00205
0.48000	0.10000	0.00133
0.49000	0.10000	0.00059
0.50000	0.10000	-0.00016
0.51000	0.10000	-0.00092
0.52000	0.10000	-0.00168
0.53000	0.10000	-0.00245
0.54000	0.10000	-0.00322
0.55000	0.10000	-0.00398
0.56000	0.10000	-0.00473
0.57000	0.10000	-0.00547
0.58000	0.10000	-0.00619
0.59000	0.10000	-0.00689
0.60000	0.10000	-0.00757
0.61000	0.10000	-0.00821
0.62000	0.10000	-0.00881
0.63000	0.10000	-0.00938
0.64000	0.10000	-0.00990
0.65000	0.10000	-0.01037
0.66000	0.10000	-0.01079
0.67000	0.10000	-0.01116
0.68000	0.10000	-0.01147
0.69000	0.10000	-0.01171
0.70000	0.10000	-0.01190
0.71000	0.10000	-0.01201
0.72000	0.10000	-0.01207
0.73000	0.10000	-0.01205
0.74000	0.10000	-0.01197
0.75000	0.10000	-0.01182
0.76000	0.10000	-0.01160
0.77000	0.10000	-0.01131
0.78000	0.10000	-0.01097
0.79000	0.10000	-0.01056
0.80000	0.10000	-0.01009
0.81000	0.10000	-0.00958
0.82000	0.10000	-0.00901
0.83000	0.10000	-0.00840
0.84000	0.10000	-0.00774
0.85000	0.10000	-0.00706
0.86000	0.10000	-0.00636
0.87000	0.10000	-0.00563
0.88000	0.10000	-0.00490
0.89000	0.10000	-0.00417
0.90000	0.10000	-0.00346
0.91000	0.10000	-0.00276
0.92000	0.10000	-0.00210
0.93000	0.10000	-0.00149
0.94000	0.10000	-0.00095
0.95000	0.10000	-0.00048
0.96000	0.10000	-0.00011
0.97000	0.10000	0.00015
0.98000	0.10000	0.00027
0.99000	0.10000	0.00023
1.00000	0.10000	0.00000
0.00000	0.11000	0.00000
0.01000	0.11000	0.00041
0.02000	0.11000	0.00097
0.03000	0.11000	0.00165
0.04000	0.11000	0.00240
0.05000	0.11000	0.00321
0.06000	0.11000	0.00403
0.07000	0.11000	0.00487
0.08000	0.11000	0.00569
0.09000	0.11000	0.00649
0.10000	0.11000	0.00726
0.11000	0.11000	0.00798
0.12000	0.11000	0.00866
0.13000	0.11000	0.00929
0.14000	0.11000	0.00986
0.15000	0.11000	0.01038
0.16000	0.11000	0.01085
0.17000	0.11000	0.01126
0.18000	0.11000	0.01162
0.19000	0.11000	0.01192
0.20000	0.11000	0.01217
0.21000	0.11000	0.01237
0.22000	0.11000	0.01252
0.23000	0.11000	0.01262
0.24000	0.11000	0.01267
0.25000	0.11000	0.01267
0.26000	0.11000	0.01263
0.27000	0.11000	0.01255
0.28000	0.11000	0.01242
0.29000	0.11000	0.01225
0.30000	0.11000	0.01204
0.31000	0.11000	0.01178
0.32000	0.11000	0.01149
0.33000	0.11000	0.01115
0.34000	0.11000	0.01077
0.35000	0.11000	0.01035
0.36000	0.11000	0.00989
0.37000	0.11000	0.00939
0.38000	0.11000	0.00885
0.39000	0.11000	0.00827
0.40000	0.11000	0.00766
0.41000	0.11000	0.00700
0.42000	0.11000	0.00632
0.43000	0.11000	0.00560
0.44000	0.11000	0.00485
0.45000	0.11000	0.00407
0.46000	0.11000	0.00326
0.47000	0.11000	0.00242
0.48000	0.11000	0.00157
0.49000	0.11000	0.00070
0.50000	0.11000	-0.00019
0.51000	0.11000	-0.00109
0.52000	0.11000	-0.00200
0.53000	0.11000	-0.00291
0.54000	0.11000	-0.00382
0.55000	0.11000	-0.00472
0.56000	0.11000	-0.00561
0.57000	0.11000	-0.00649
0.58000	0.11000	-0.00734
0.59000	0.11000	-0.00817
0.60000	0.11000	-0.00896
0.61000	0.11000	-0.00972
0.62000	0.11000	-0.01044
0.63000	0.11000	-0.01111
0.64000	0.11000	-0.01173
0.65000	0.11000	-0.01229
0.66000	0.11000	-0.01279