TITLE = VELOCITY
VARIABLES = "u", "y"
Zone T = "BLOCK1", j=101, F=POINT

0.000000		0.000
0.000000		0.010
0.000000		0.020
0.000000		0.030
0.000000		0.040
0.000000		0.050
0.000000		0.060
0.000000		0.070
0.000000		0.080
0.000000		0.090
0.000000		0.100
0.000000		0.110
0.000000		0.120
0.000000		0.130
0.000000		0.140
0.000000		0.150
0.000000		0.160
0.000000		0.170
0.000000		0.180
0.000000		0.190
0.000000		0.200
0.000000		0.210
0.000000		0.220
0.000000		0.230
0.000000		0.240
0.000000		0.250
0.000000		0.260
0.000000		0.270
0.000000		0.280
0.000000		0.290
0.000000		0.300
0.000000		0.310
0.000000		0.320
0.000000		0.330
0.000000		0.340
0.000000		0.350
0.000000		0.360
0.000000		0.370
0.000000		0.380
0.000000		0.390
0.000000		0.400
0.000000		0.410
0.000000		0.420
0.000000		0.430
0.000000		0.440
0.000000		0.450
0.000000		0.460
0.000000		0.470
0.000000		0.480
0.000000		0.490
0.000000		0.500
0.000000		0.510
0.000000		0.520
0.000000		0.530
0.000000		0.540
0.000000		0.550
0.000000		0.560
0.000000		0.570
0.000000		0.580
0.000000		0.590
0.000000		0.600
0.000000		0.610
0.000000		0.620
0.000000		0.630
0.000000		0.640
0.000000		0.650
0.000000		0.660
0.000000		0.670
0.000000		0.680
0.000000		0.690
0.000000		0.700
0.000000		0.710
0.000000		0.720
0.000000		0.730
0.000000		0.740
0.000000		0.750
0.000000		0.760
0.000000		0.770
0.000000		0.780
0.000000		0.790
0.000000		0.800
0.000000		0.810
0.000000		0.820
0.000000		0.830
0.000000		0.840
0.000000		0.850
0.000000		0.860
0.000000		0.870
0.000000		0.880
0.000000		0.890
0.000000		0.900
0.000000		0.910
0.000000		0.920
0.000000		0.930
0.000000		0.940
0.000000		0.950
0.000000		0.960
0.000000		0.970
0.000000		0.980
0.500000		0.990
1.000000		1.000

TITLE = VELOCITY
VARIABLES = "u", "y"
Zone T = "BLOCK1", j=101, F=POINT

0.000000		0.000
0.000000		0.010
0.000000		0.020
0.000000		0.030
0.000000		0.040
0.000000		0.050
0.000000		0.060
0.000000		0.070
0.000000		0.080
0.000000		0.090
0.000000		0.100
0.000000		0.110
0.000000		0.120
0.000000		0.130
0.000000		0.140
0.000000		0.150
0.000000		0.160
0.000000		0.170
0.000000		0.180
0.000000		0.190
0.000000		0.200
0.000000		0.210
0.000000		0.220
0.000000		0.230
0.000000		0.240
0.000000		0.250
0.000000		0.260
0.000000		0.270
0.000000		0.280
0.000000		0.290
0.000000		0.300
0.000000		0.310
0.000000		0.320
0.000000		0.330
0.000000		0.340
0.000000		0.350
0.000000		0.360
0.000000		0.370
0.000000		0.380
0.000000		0.390
0.000000		0.400
0.000000		0.410
0.000000		0.420
0.000000		0.430
0.000000		0.440
0.000000		0.450
0.000000		0.460
0.000000		0.470
0.000000		0.480
0.000000		0.490
0.000000		0.500
0.000001		0.510
0.000001		0.520
0.000002		0.530
0.000003		0.540
0.000006		0.550
0.000009		0.560
0.000016		0.570
0.000022		0.580
0.000039		0.590
0.000055		0.600
0.000093		0.610
0.000131		0.620
0.000213		0.630
0.000296		0.640
0.000469		0.650
0.000641		0.660
0.000987		0.670
0.001332		0.680
0.001993		0.690
0.002654		0.700
0.003866		0.710
0.005077		0.720
0.007206		0.730
0.009335		0.740
0.012920		0.750
0.016506		0.760
0.022298		0.770
0.028089		0.780
0.037067		0.790
0.046044		0.800
0.059401		0.810
0.072757		0.820
0.091838		0.830
0.110918		0.840
0.137099		0.850
0.163279		0.860
0.197790		0.870
0.232300		0.880
0.276014		0.890
0.319727		0.900
0.372944		0.910
0.426160		0.920
0.488434		0.930
0.550709		0.940
0.620768		0.950
0.690826		0.960
0.766604		0.970
0.842382		0.980
0.921191		0.990
1.000000		1.000

TITLE = VELOCITY
VARIABLES = "u", "y"
Zone T = "BLOCK1", j=101, F=POINT

0.000000		0.000
0.000003		0.010
0.000007		0.020
0.000010		0.030
0.000014		0.040
0.000019		0.050
0.000024		0.060
0.000030		0.070
0.000038		0.080
0.000046		0.090
0.000057		0.100
0.000068		0.110
0.000083		0.120
0.000099		0.130
0.000121		0.140
0.000143		0.150
0.000174		0.160
0.000205		0.170
0.000248		0.180
0.000292		0.190
0.000351		0.200
0.000411		0.210
0.000493		0.220
0.000575		0.230
0.000687		0.240
0.000799		0.250
0.000950		0.260
0.001101		0.270
0.001303		0.280
0.001505		0.290
0.001774		0.300
0.002042		0.310
0.002396		0.320
0.002751		0.330
0.003213		0.340
0.003676		0.350
0.004276		0.360
0.004877		0.370
0.005649		0.380
0.006421		0.390
0.007406		0.400
0.008391		0.410
0.009638		0.420
0.010885		0.430
0.012451		0.440
0.014017		0.450
0.015967		0.460
0.017918		0.470
0.020327		0.480
0.022737		0.490
0.025690		0.500
0.028644		0.510
0.032235		0.520
0.035826		0.530
0.040157		0.540
0.044488		0.550
0.049670		0.560
0.054853		0.570
0.061004		0.580
0.067155		0.590
0.074398		0.600
0.081641		0.610
0.090102		0.620
0.098562		0.630
0.108366		0.640
0.118170		0.650
0.129441		0.660
0.140711		0.670
0.153564		0.680
0.166417		0.690
0.180959		0.700
0.195500		0.710
0.211821		0.720
0.228142		0.730
0.246314		0.740
0.264487		0.750
0.284560		0.760
0.304633		0.770
0.326630		0.780
0.348627		0.790
0.372540		0.800
0.396454		0.810
0.422245		0.820
0.448036		0.830
0.475631		0.840
0.503227		0.850
0.532519		0.860
0.561811		0.870
0.592657		0.880
0.623503		0.890
0.655728		0.900
0.687954		0.910
0.721353		0.920
0.754753		0.930
0.789095		0.940
0.823438		0.950
0.858470		0.960
0.893502		0.970
0.928954		0.980
0.964406		0.990
1.000000		1.000

TITLE = VELOCITY
VARIABLES = "u", "y"
Zone T = "BLOCK1", j=101, F=POINT

0.000000		0.000
0.002935		0.010
0.005870		0.020
0.008829		0.030
0.011787		0.040
0.014793		0.050
0.017798		0.060
0.020874		0.070
0.023949		0.080
0.027118		0.090
0.030287		0.100
0.033573		0.110
0.036859		0.120
0.040284		0.130
0.043710		0.140
0.047298		0.150
0.050886		0.160
0.054659		0.170
0.058432		0.180
0.062413		0.190
0.066394		0.200
0.070605		0.210
0.074815		0.220
0.079277		0.230
0.083739		0.240
0.088473		0.250
0.093208		0.260
0.098236		0.270
0.103264		0.280
0.108605		0.290
0.113946		0.300
0.119620		0.310
0.125294		0.320
0.131320		0.330
0.137346		0.340
0.143741		0.350
0.150136		0.360
0.156917		0.370
0.163698		0.380
0.170881		0.390
0.178064		0.400
0.185663		0.410
0.193263		0.420
0.201292		0.430
0.209321		0.440
0.217791		0.450
0.226262		0.460
0.235184		0.470
0.244107		0.480
0.253490		0.490
0.262872		0.500
0.272723		0.510
0.282573		0.520
0.292896		0.530
0.303219		0.540
0.314018		0.550
0.324816		0.560
0.336092		0.570
0.347368		0.580
0.359120		0.590
0.370872		0.600
0.383097		0.610
0.395322		0.620
0.408014		0.630
0.420707		0.640
0.433861		0.650
0.447014		0.660
0.460618		0.670
0.474223		0.680
0.488266		0.690
0.502309		0.700
0.516776		0.710
0.531244		0.720
0.546120		0.730
0.560996		0.740
0.576261		0.750
0.591527		0.760
0.607161		0.770
0.622795		0.780
0.638776		0.790
0.654757		0.800
0.671059		0.810
0.687360		0.820
0.703957		0.830
0.720554		0.840
0.737418		0.850
0.754281		0.860
0.771382		0.870
0.788482		0.880
0.805789		0.890
0.823095		0.900
0.840575		0.910
0.858054		0.920
0.875674		0.930
0.893293		0.940
0.911019		0.950
0.928744		0.960
0.946540		0.970
0.964337		0.980
0.982168		0.990
1.000000		1.000

TITLE = VELOCITY
VARIABLES = "u", "y"
Zone T = "BLOCK1", j=101, F=POINT

0.000000		0.000
0.008307		0.010
0.016618		0.020
0.024929		0.030
0.033249		0.040
0.041570		0.050
0.049907		0.060
0.058244		0.070
0.066605		0.080
0.074965		0.090
0.083355		0.100
0.091745		0.110
0.100171		0.120
0.108597		0.130
0.117065		0.140
0.125533		0.150
0.134049		0.160
0.142566		0.170
0.151136		0.180
0.159706		0.190
0.168336		0.200
0.176966		0.210
0.185662		0.220
0.194357		0.230
0.203122		0.240
0.211888		0.250
0.220728		0.260
0.229569		0.270
0.238489		0.280
0.247409		0.290
0.256413		0.300
0.265417		0.310
0.274509		0.320
0.283601		0.330
0.292785		0.340
0.301968		0.350
0.311246		0.360
0.320525		0.370
0.329900		0.380
0.339276		0.390
0.348752		0.400
0.358228		0.410
0.367805		0.420
0.377383		0.430
0.387065		0.440
0.396747		0.450
0.406533		0.460
0.416320		0.470
0.426213		0.480
0.436105		0.490
0.446104		0.500
0.456103		0.510
0.466209		0.520
0.476314		0.530
0.486525		0.540
0.496737		0.550
0.507053		0.560
0.517369		0.570
0.527790		0.580
0.538210		0.590
0.548733		0.600
0.559255		0.610
0.569878		0.620
0.580501		0.630
0.591221		0.640
0.601942		0.650
0.612757		0.660
0.623573		0.670
0.634480		0.680
0.645387		0.690
0.656382		0.700
0.667377		0.710
0.678457		0.720
0.689536		0.730
0.700696		0.740
0.711855		0.750
0.723090		0.760
0.734324		0.770
0.745630		0.780
0.756935		0.790
0.768305		0.800
0.779676		0.810
0.791107		0.820
0.802537		0.830
0.814022		0.840
0.825507		0.850
0.837040		0.860
0.848573		0.870
0.860149		0.880
0.871724		0.890
0.883336		0.900
0.894947		0.910
0.906589		0.920
0.918230		0.930
0.929895		0.940
0.941560		0.950
0.953241		0.960
0.964922		0.970
0.976614		0.980
0.988305		0.990
1.000000		1.000
